<?xml version="1.0"?>
<VTKFile type="ImageData" version="0.1" byte_order="LittleEndian">
<ImageData WholeExtent="0 128 0 128 0 1" Origin="0 0 0" Spacing="1 1 1">
<Piece Extent="0 128 0 128 0 1">
<PointData>
</PointData>
<CellData Scalars="Spin">
<DataArray type="Int32" Name="Spin" format="ascii" RangeMin="0" RangeMax="30443">
5318 19691 19691 16356 16356 16356 16356 16356 16356 16356 16356 16356 13889 13889 13889 13090 13090 13090 13090 19921 19921 19921 19921 19921 19921 19921 4733 4733 4733 25876 25876 25876 25876 25876 25876 25876 25876 25876 28865 28865 28865 1925 1925 1925 1925 23693 23693 29512 29512 29512 29512 29512 29512 8886 8886 8886 8886 8886 8886 8886 8886 10902 10902 10902 10902 10902 19890 26350 26350 26350 26350 26350 6374 6374 6374 6374 6374 30063 30063 30063 30063 30063 30063 30063 5028 5028 5028 5028 5028 5028 2602 2602 5745 5745 5745 5745 5745 5745 5745 5745 30268 30268 30268 30268 25785 17461 17461 17461 17461 17461 29187 29187 29187 29187 29187 29187 29187 29187 29187 29187 29187 29187 29187 5318 5318 5318 5318 5318 19691 19691 19691 19691 16356 16356 16356 16356 16356 16356 16356 16356 8323 8323 8323 8323 13090 13090 19921 19921 19921 19921 19921 19921 19921 19921 19921 4733 25876 25876 25876 25876 25876 25876 25876 25876 25876 25876 25876 28502 28502 28502 1925 1925 23693 23693 23693 23693 29512 29512 29512 29512 6437 6437 8886 8886 8886 8886 8886 8886 10902 10902 10902 10902 10902 10902 10902 26350 26350 26350 26350 26350 2267 2267 2267 2267 2267 30063 30063 30063 30063 30063 30063 30063 30063 5028 5028 5028 5028 2602 2602 2602 2602 5745 5745 5745 5745 5745 5745 5745 30268 30268 30268 25785 25785 25785 17461 17461 17461 29187 29187 29187 29187 29187 29187 29187 29187 29187 29187 29187 29187 29187 29187 29187 5318 5318 5318 5318 19691 19691 19691 19691 19691 16356 16356 16356 16356 16356 16356 8323 8323 8323 8323 8323 8323 8323 19921 19921 19921 19921 19921 19921 19921 19921 19921 19921 25876 25876 25876 25876 25876 25876 25876 25876 25876 25876 28502 28502 28502 28502 28502 23693 23693 23693 23693 23693 23693 29512 29512 6437 6437 6437 6437 8886 8886 8886 8886 10902 10902 10902 10902 10902 10902 10902 10902 10902 26350 26350 26350 2267 2267 2267 2267 2267 2267 2267 30063 30063 30063 30063 30063 30063 30063 1338 1338 1338 1338 2602 2602 2602 2602 2602 5745 5745 5745 5745 5745 5745 30268 30268 30268 25785 25785 25785 11499 11499 11499 29187 29187 29187 29187 29187 29187 29187 29187 29187 29187 29187 29187 29187 29187 29187 15498 15498 19691 19691 19691 19691 19691 19691 19691 19691 16356 16356 16356 16356 8323 8323 8323 8323 8323 8323 8323 8323 19921 19921 19921 19921 19921 19921 19921 19921 19921 19921 19921 25876 25876 25876 25876 25876 25876 25876 25876 25876 28502 28502 28502 28502 28502 23693 23693 23693 23693 23693 23693 6437 6437 6437 6437 6437 6437 6437 11804 11804 11804 10902 10902 10902 10902 10902 10902 10902 10902 10902 10902 26350 2267 2267 2267 2267 2267 2267 2267 2267 2267 30063 30063 30063 30063 30063 1338 1338 1338 1338 1338 1338 2602 2602 2602 2602 2602 5745 5745 5745 5745 5745 5461 5461 5461 25785 25785 25785 11499 11499 11499 30072 29187 29187 29187 29187 29187 29187 29187 29187 29187 29187 29187 29187 29187 15498 15498 15498 19691 19691 19691 19691 19691 19691 19691 19691 19691 16356 16356 8323 8323 8323 8323 8323 8323 8323 8323 8323 19921 19921 19921 19921 19921 19921 19921 19921 19921 19921 19921 19921 25876 25876 25876 25876 25876 25876 25876 28502 28502 28502 28502 28502 28502 23693 23693 23693 23693 23693 6437 6437 6437 6437 6437 6437 6437 6437 11804 11804 11804 10902 10902 10902 10902 10902 10902 10902 10902 10902 10902 10902 2267 2267 2267 2267 2267 2267 2267 2267 2267 30063 30063 30063 30063 1338 1338 1338 1338 1338 1338 1338 1338 2602 2602 2602 21333 21333 21333 5745 5745 5461 5461 5461 5461 5461 25785 25785 11499 11499 30072 30072 30072 29187 29187 29187 29187 29187 29187 29187 29187 29187 29187 29187 15498 15498 15498 15498 19691 19691 19691 19691 19691 19691 19691 19691 19691 19691 8323 8323 8323 8323 8323 8323 8323 8323 8323 8323 19921 19921 19921 19921 19921 19921 19921 19921 19921 19921 19921 19921 19921 25876 25876 25876 25865 25865 25865 25865 28502 28502 28502 28502 25479 25479 25479 25479 25479 25479 6437 6437 6437 6437 6437 6437 6437 6437 11804 11804 11804 11804 10902 10902 10902 10902 10902 10902 10902 10902 10902 10902 6263 6263 6263 6263 6263 6263 6263 6263 6263 6263 6263 6263 1338 1338 1338 1338 1338 1338 1338 1338 1338 1338 2602 21333 21333 21333 21333 21333 21333 5461 5461 5461 5461 5461 5460 5460 5460 5460 30072 30072 30072 24626 29187 29187 29187 29187 29187 29187 29187 29187 29187 15498 15498 15498 15498 15498 19691 19691 19691 19691 19691 19691 19691 19691 19691 19691 8323 8323 8323 8323 8323 8323 8323 8323 8323 8323 19921 19921 19921 19921 19921 19921 19921 19921 19921 19921 19921 19921 19921 19921 25876 25865 25865 25865 25865 25865 25865 28502 28502 25479 25479 25479 25479 25479 25479 25479 25479 6437 6437 6437 6437 6437 6437 6437 11804 11804 11804 11804 10902 10902 10902 10902 10902 10902 10902 10902 10902 6263 6263 6263 6263 6263 6263 6263 6263 6263 6263 6263 6263 6263 6263 1338 1338 1338 1338 1338 1338 1338 1338 1338 17350 21333 21333 21333 21333 21333 21333 21333 5461 5461 5461 5460 5460 5460 5460 5460 5460 30072 24626 24626 24626 24626 29187 29187 29187 29187 29187 29187 15498 15498 15498 15498 15498 19691 19691 19691 19691 19691 19691 19691 19691 19691 19691 19691 8323 8323 8323 8323 8323 8323 8323 8323 8323 1349 19921 19921 19921 19921 19921 19921 19921 19921 19921 19921 19921 19921 19921 19921 25865 25865 25865 25865 25865 25865 25865 25865 25479 25479 25479 25479 25479 25479 25479 25479 25479 6437 6437 6437 6437 6437 6437 6437 11804 11804 11804 11804 10902 10902 10902 10902 10902 10902 10902 10902 10902 6263 6263 6263 6263 6263 6263 6263 6263 6263 6263 6263 6263 6263 6263 1338 1338 1338 1338 1338 1338 1338 1338 17350 17350 17350 21333 21333 21333 21333 21333 21333 21333 5461 5460 5460 5460 5460 5460 5460 5460 24626 24626 24626 24626 24626 24626 24626 24626 24626 24626 15498 15498 15498 15498 15498 15498 19691 19691 19691 19691 19691 19691 19691 19691 19691 19691 18115 18115 8323 8323 8323 8323 8323 8323 1349 1349 1349 1349 1349 19921 19921 19921 19921 19921 19921 19921 19921 19921 19921 19921 19921 25865 25865 25865 25865 25865 25865 25865 25865 25479 25479 25479 25479 25479 25479 25479 25479 25479 6437 6437 6437 6437 6437 6437 6437 11804 11804 11804 11804 11804 10902 10902 10902 10902 10902 10902 10902 10902 6263 6263 6263 6263 6263 6263 6263 6263 6263 6263 6263 6263 6263 6263 1338 1338 1338 1338 1338 1338 1338 1338 17350 17350 17350 17350 21333 21333 21333 21333 21333 21333 5460 5460 5460 5460 5460 5460 5460 24626 24626 24626 24626 24626 24626 24626 24626 24626 24626 24626 15498 15498 15498 15498 15498 28283 28283 19691 19691 19691 19691 19691 19691 19691 19691 18115 18115 18115 18115 8323 8323 8323 8323 1349 1349 1349 1349 1349 1349 1349 19921 19921 19921 19921 19921 19921 19921 19921 19921 19921 19921 0 25865 25865 25865 25865 25865 25865 25865 25479 25479 25479 25479 25479 25479 25479 25479 25479 6437 6437 6437 6437 6437 6437 6437 11804 11804 11804 11804 14021 14021 14021 14021 14021 14021 14021 14021 14021 6263 6263 6263 6263 6263 6263 6263 6263 6263 6263 6263 6263 6263 6263 6263 1338 1338 1338 1338 1338 1338 1338 17350 17350 17350 17350 14984 14984 14984 14984 14984 14984 14984 5460 5460 5460 5460 5460 24626 24626 24626 24626 24626 24626 24626 24626 24626 24626 24626 24626 15498 15498 15498 15498 28283 28283 28283 28283 19691 19691 19691 19691 19691 19691 18115 18115 18115 18115 18115 18115 8323 8323 1349 1349 1349 1349 1349 1349 1349 1349 1349 19921 19921 19921 19921 19921 19921 19921 19921 19921 0 0 0 25865 25865 25865 25865 25865 25865 25479 25479 25479 25479 25479 25479 25479 25479 25479 25479 6437 6437 6437 6437 6437 6437 11804 11804 11804 14021 14021 14021 14021 14021 14021 14021 14021 14021 14021 6263 6263 6263 6263 6263 6263 6263 6263 6263 6263 6263 6263 6263 6263 6263 1338 1338 1338 1338 1338 1338 1338 17350 17350 17350 17350 14984 14984 14984 14984 14984 14984 14984 10921 10921 10921 10921 10921 24626 24626 24626 24626 24626 24626 24626 24626 24626 24626 24626 2977 2977 15498 15498 28283 28283 28283 28283 28283 28283 28283 19691 19691 19691 18115 18115 18115 18115 18115 18115 11347 11347 1349 1349 1349 1349 1349 1349 1349 1349 1349 1349 1349 19921 19921 19921 19921 0 0 0 0 0 0 0 0 25865 25865 25865 25865 25865 25479 25479 25479 25479 25479 25479 25479 25479 25479 25479 25479 29233 29233 29233 29233 29233 11804 11804 14021 14021 14021 14021 14021 14021 14021 14021 14021 14021 14021 6263 6263 6263 6263 6263 6263 6263 6263 6263 6263 6263 6263 6263 6263 6263 3994 3994 3994 3994 3994 3994 3994 27311 27311 27311 27311 14984 14984 14984 14984 14984 14984 14984 10921 10921 10921 10921 10921 8042 24626 24626 24626 24626 24626 24626 24626 24626 24626 2977 2977 2977 2977 28283 28283 28283 28283 28283 28283 28283 28283 28283 19691 18115 18115 18115 18115 18115 18115 11347 11347 11347 1349 1349 1349 1349 1349 1349 1349 1349 1349 1349 1349 1349 0 0 0 0 0 0 0 0 0 0 0 0 0 0 0 0 0 0 0 25479 25479 25479 25479 25479 25479 25479 25479 29233 29233 29233 29233 29233 29233 14021 14021 14021 14021 14021 14021 14021 14021 14021 14021 14021 14021 6263 6263 6263 6263 6263 6263 6263 6263 6263 6263 6263 6263 6263 6263 6263 3994 3994 3994 3994 3994 3994 3994 27311 27311 27311 27311 27311 14984 14984 14984 14984 14984 14984 10921 10921 10921 10921 8042 8042 8042 24626 24626 24626 24626 24626 24626 24626 2977 2977 2977 2977 2977 28283 28283 28283 28283 28283 28283 28283 28283 28283 28283 18115 18115 18115 18115 18115 11347 11347 11347 11347 1349 1349 1349 1349 1349 1349 1349 1349 1349 1349 1349 1349 0 0 0 0 0 0 0 0 0 0 0 0 0 0 0 0 0 0 0 0 25479 25479 25479 25479 25479 25479 23515 23515 29233 29233 29233 29233 29233 14021 14021 14021 14021 14021 14021 14021 14021 14021 14021 14021 14021 6263 6263 6263 6263 6263 6263 6263 6263 6263 6263 6263 6263 6263 6263 6263 3994 3994 3994 3994 3994 3994 3994 27311 27311 27311 27311 27311 14984 14984 14984 14984 14984 14984 10921 10921 10921 8042 8042 8042 8042 8042 24626 24626 24626 24626 24626 2977 2977 2977 2977 2977 2977 28283 28283 28283 28283 28283 28283 28283 28283 28283 28283 18115 18115 18115 18115 11347 11347 11347 11347 11347 1349 1349 1349 1349 1349 1349 1349 1349 1349 1349 1349 1349 0 0 0 0 0 0 0 0 0 0 0 0 0 0 0 0 0 0 0 0 0 25479 25479 25479 25479 23515 23515 23515 23515 29233 29233 29233 29233 14021 14021 14021 14021 14021 14021 14021 14021 14021 14021 14021 14021 6263 6263 6263 6263 6263 6263 6263 6263 6263 6263 6263 6263 6263 6263 6263 3994 3994 3994 3994 3994 3994 3994 27311 27311 27311 27311 3712 3712 14984 14984 14984 14984 14984 10921 10921 8042 8042 8042 8042 8042 8042 6081 6081 6081 6081 6081 2977 2977 2977 2977 2977 2977 28283 28283 28283 28283 28283 28283 28283 28283 28283 5556 5556 5556 5556 29103 29103 11347 11347 11347 11347 1349 1349 1349 1349 1349 1349 1349 1349 1349 1349 1349 1349 0 0 0 0 0 0 0 0 0 0 0 0 0 0 0 0 0 0 0 0 0 0 0 0 0 23515 23515 23515 23515 23515 29233 29233 26128 26128 14021 14021 14021 14021 14021 14021 14021 14021 14021 14021 14021 6263 6263 6263 6263 6263 6263 6263 6263 6263 6263 6263 6263 6263 6263 6263 3994 3994 3994 3994 3994 3994 3994 27311 27311 27311 3712 3712 3712 3712 14984 14984 14984 21524 21524 8042 8042 8042 8042 8042 8042 6081 6081 6081 6081 6081 6081 6081 2977 2977 2977 2977 2977 28283 28283 28283 28283 28283 28283 28283 28283 5556 5556 5556 5556 5556 29103 29103 29103 29103 23106 23106 23106 1349 1349 1349 1349 1349 1349 1349 1349 1349 1349 1349 0 0 0 0 0 0 0 0 0 0 0 0 0 0 0 0 0 0 0 0 0 0 0 0 0 0 23515 23515 23515 23515 23515 25189 26128 26128 26128 14021 14021 14021 14021 14021 14021 14021 14021 14021 14021 6263 6263 6263 6263 6263 6263 6263 6263 6263 6263 6263 6263 6263 6263 3994 3994 3994 3994 3994 3994 10000 10000 10000 3712 3712 3712 3712 3712 3712 3712 14984 21524 21524 21524 21524 8042 8042 8042 8042 6081 6081 6081 6081 6081 6081 6081 6081 6081 2977 2977 2977 2977 28283 28283 28283 28283 28283 28283 28283 5556 5556 5556 5556 5556 5556 23106 23106 23106 23106 23106 23106 23106 23106 1349 1349 1349 1349 1349 1349 1349 1349 1349 0 0 0 0 0 0 0 0 0 0 0 0 0 0 0 0 0 0 0 0 0 0 0 0 0 0 0 0 0 23515 23515 25189 25189 25189 26128 26128 26128 14021 14021 14021 14021 14021 14021 14021 14021 14021 6263 6263 6263 6263 6263 6263 6263 6263 6263 6263 6263 6263 6263 6263 6263 3994 3994 10000 10000 10000 10000 10000 10000 10000 10000 3712 3712 3712 3712 3712 21524 21524 21524 21524 21524 21524 8042 8042 6081 6081 6081 6081 6081 6081 6081 6081 6081 6081 2977 2977 2977 2977 28283 28283 28283 28283 28283 28283 28283 5556 5556 5556 5556 5556 5556 23106 23106 23106 23106 23106 23106 23106 23106 23106 1349 1349 1349 1349 1349 1349 1349 1349 0 0 0 0 0 0 0 0 0 0 0 0 0 0 0 0 0 0 0 0 0 0 0 0 0 0 0 0 0 0 0 25189 25189 25189 25189 26128 26128 26128 14021 14021 14021 14021 14021 14021 4693 4693 4693 6263 6263 6263 6263 6263 6263 6263 6263 6263 6263 6263 6263 6263 10000 10000 10000 10000 10000 10000 10000 10000 10000 10000 10000 10000 10000 3712 10000 10000 21524 21524 21524 21524 21524 21524 21524 6081 6081 6081 6081 6081 6081 6081 6081 6081 6081 6081 6081 2977 2977 2977 28283 28283 28283 28283 28283 28283 5556 5556 5556 5556 5556 5556 5556 23106 23106 23106 23106 23106 23106 23106 23106 23106 23106 1349 1349 1349 1349 1349 1349 1349 0 0 0 0 0 0 0 0 0 0 0 0 0 0 0 0 0 0 0 0 0 0 0 0 0 0 0 0 0 0 0 0 25189 25189 25189 25189 26128 26128 21729 21729 21729 21729 21729 4693 4693 4693 4693 4693 6263 6263 6263 6263 6263 6263 6263 6263 6263 6263 10000 10000 10000 10000 10000 10000 10000 10000 10000 10000 10000 10000 10000 10000 10000 10000 10000 10000 10000 21524 21524 21524 21524 21524 6081 6081 6081 6081 6081 6081 6081 6081 6081 6081 6081 6081 10835 10835 10835 10555 10555 10555 10555 10555 10555 10555 5556 5556 5556 5556 5556 5556 5556 23106 23106 23106 23106 23106 23106 23106 23106 23106 23106 23106 1349 1349 1349 1349 1349 1349 0 0 0 0 0 0 0 0 0 0 0 0 0 0 0 0 0 0 0 0 0 0 0 0 0 0 0 0 0 0 0 0 0 25189 25189 25189 719 719 21729 21729 21729 21729 21729 21729 4693 4693 4693 4693 4693 6263 6263 6263 6263 6263 6263 6263 6263 10000 10000 10000 10000 10000 10000 10000 10000 10000 10000 10000 10000 10000 10000 10000 10000 10000 10000 10000 10000 10000 21524 21524 21524 10000 10000 6081 6081 6081 6081 6081 6081 6081 6081 6081 6081 10835 10835 10835 10835 10555 10555 10555 10555 10555 10555 10555 10479 10479 5556 5556 5556 5556 26357 23106 23106 23106 23106 23106 23106 23106 23106 23106 23106 22292 22292 1349 1349 1349 1349 0 0 0 0 0 0 0 0 0 0 0 0 0 0 0 0 0 0 0 0 0 0 0 0 0 0 0 0 0 0 0 0 0 0 0 25189 719 719 719 21729 21729 21729 21729 21729 21729 21729 4693 4693 4693 4693 6263 6263 6263 6263 6263 6263 6263 10000 10000 10000 10000 10000 10000 10000 10000 10000 10000 10000 10000 10000 10000 10000 10000 10000 10000 10000 10000 10000 10000 10000 10000 10000 10000 10000 10000 6081 6081 6081 6081 6081 6081 6081 6081 10835 10835 10835 10835 10835 10555 10555 10555 10555 10555 10555 10479 10479 10479 10479 5556 5556 26357 26357 26357 23106 23106 23106 23106 23106 23106 23106 23106 22292 22292 22292 22292 1349 1349 0 0 0 0 0 0 0 0 0 0 0 0 0 0 0 0 0 0 0 0 0 0 0 0 0 0 0 0 0 0 0 0 0 0 0 0 0 719 719 719 21729 21729 21729 21729 21729 21729 21729 21729 4693 4693 5040 6263 6263 6263 6263 6263 6263 10000 10000 10000 10000 10000 10000 10000 10000 10000 10000 10000 10000 10000 10000 10000 10000 10000 10000 10000 10000 10000 10000 10000 10000 10000 10000 10000 10000 10000 10000 10000 14135 6081 6081 6081 6081 10835 10835 10835 10835 10835 24979 10555 10555 10555 10555 10555 10479 10479 10479 10479 10479 10479 26357 26357 26357 26357 26357 23106 23106 23106 23106 23106 23106 22292 22292 22292 22292 22292 22292 0 0 0 0 0 0 0 0 0 0 0 0 0 0 0 0 0 0 0 0 0 0 0 0 0 0 0 0 0 0 0 0 0 0 0 0 0 0 719 719 719 21729 21729 21729 21729 21729 21729 21729 21729 21729 5040 5040 5040 6263 6263 6263 6263 10000 10000 10000 10000 10000 10000 10000 10000 10000 10000 10000 10000 10000 10000 10000 10000 10000 10000 10000 10000 10000 10000 10000 10000 10000 10000 10000 10000 10000 10000 10000 10000 10000 14135 6081 6081 10835 10835 10835 10835 10835 24979 24979 24979 10555 10555 10555 14707 10479 10479 10479 10479 10479 10479 26357 26357 26357 26357 26357 26357 23106 23106 23106 23106 22292 22292 22292 22292 22292 22292 22292 0 0 0 0 0 0 0 0 0 0 0 0 0 0 0 0 0 0 0 0 0 0 0 0 0 0 0 0 0 0 0 0 0 0 0 0 0 0 0 719 719 21729 21729 21729 21729 21729 21729 21729 21729 2091 5040 5040 5040 10000 10000 10000 10000 10000 10000 10000 10000 10000 10000 10000 10000 10000 10000 10000 10000 10000 10000 10000 10000 10000 10000 10000 10000 10000 10000 10000 10000 10000 10000 10000 10000 10000 10000 10000 10000 10000 10000 14135 14135 10835 10835 10835 10835 24979 24979 24979 24979 24979 10555 14707 14707 14707 10479 10479 22720 22720 22720 26357 26357 26357 26357 26357 26357 26357 23106 23106 22292 22292 22292 22292 22292 22292 22292 0 0 0 0 0 0 0 0 0 0 0 0 0 0 0 0 0 0 0 0 0 0 0 0 0 0 0 0 0 0 0 0 0 0 0 0 0 0 0 0 0 12862 12862 21729 21729 21729 21729 21729 21729 2091 2091 2091 5040 10000 10000 10000 10000 10000 10000 10000 10000 10000 10000 10000 10000 10000 10000 10000 10000 10000 10000 10000 10000 10000 10000 10000 10000 10000 10000 10000 10000 10000 10000 10000 10000 10000 10000 10000 10000 10000 10000 10000 14135 14135 24979 24979 24979 24979 24979 24979 24979 24979 24979 14707 14707 14707 14707 22720 22720 22720 22720 22720 22720 26357 26357 26357 26357 26357 26357 969 22292 22292 22292 22292 22292 22292 22292 22292 0 0 0 0 0 0 0 0 0 0 0 0 0 0 0 0 0 0 0 0 0 0 0 0 0 0 0 0 0 0 0 0 0 0 0 0 0 0 0 0 0 12862 12862 12862 21729 21729 21729 21729 2091 2091 2091 2091 10000 10000 10000 10000 10000 10000 10000 10000 10000 10000 10000 10000 10000 10000 10000 10000 10000 10000 10000 10000 10000 10000 10000 10000 10000 10000 10000 10000 10000 10000 10000 10000 10000 10000 10000 10000 10000 10000 10000 10000 10000 10000 24979 24979 24979 24979 24979 24979 24979 24979 24979 14707 14707 14707 22720 22720 22720 22720 22720 22720 22720 22720 26357 26357 26357 26357 969 969 969 22292 22292 22292 22292 22292 22292 0 0 0 0 0 0 0 0 0 0 0 0 0 0 0 0 0 0 0 0 0 0 0 0 0 0 0 0 0 0 0 0 0 0 0 0 0 0 0 0 0 0 12862 12862 12862 12862 12862 21729 2091 2091 2091 2091 10000 10000 10000 10000 10000 10000 10000 10000 10000 10000 10000 10000 10000 10000 10000 10000 10000 10000 10000 10000 10000 10000 10000 10000 10000 10000 10000 10000 10000 10000 10000 10000 10000 10000 10000 10000 10000 10000 10000 10000 10000 10000 10000 24979 24979 24979 24979 24979 24979 24979 24979 24979 14707 14707 22720 22720 22720 22720 22720 22720 22720 22720 22720 22720 26357 26357 969 969 969 969 14533 14533 14533 14533 14533 14533 0 0 0 0 0 0 0 0 0 0 0 0 0 0 0 0 0 0 0 0 0 0 0 0 0 0 0 0 0 0 0 0 0 0 0 0 0 0 0 0 0 0 0 12862 12862 12862 12862 12862 2091 2091 2091 2091 10000 10000 10000 10000 10000 10000 10000 10000 10000 10000 10000 10000 10000 10000 10000 10000 10000 10000 10000 10000 10000 10000 10000 10000 10000 10000 10000 10000 10000 10000 10000 10000 10000 10000 10000 10000 10000 10000 10000 10000 10000 10000 10000 24979 24979 24979 24979 24979 24979 24979 24979 30222 30222 22720 22720 22720 22720 22720 22720 22720 22720 22720 22720 22720 22720 969 969 969 969 14533 14533 14533 14533 14533 14533 0 0 0 0 0 0 0 0 0 0 0 0 0 0 0 0 0 0 0 0 0 0 0 0 0 0 0 0 0 0 0 0 0 0 0 0 0 0 0 0 0 0 0 0 0 12862 12862 12862 12862 2091 2091 2091 10000 10000 10000 10000 10000 10000 10000 10000 10000 10000 10000 10000 10000 10000 10000 10000 10000 10000 10000 10000 10000 10000 10000 10000 10000 10000 10000 10000 10000 10000 10000 10000 10000 10000 10000 10000 10000 10000 10000 10000 10000 10000 10000 10000 24979 24979 24979 24979 24979 24979 24979 30222 30222 30222 30222 22720 22720 22720 22720 22720 22720 22720 22720 22720 22720 22720 22720 969 969 14533 14533 14533 14533 14533 14533 14533 0 0 0 0 0 0 0 0 0 0 0 0 0 0 0 0 0 0 0 0 0 0 0 0 0 0 0 0 0 0 0 0 0 0 0 0 0 0 0 0 0 0 0 0 0 0 12862 12862 6839 6839 2091 10000 10000 10000 10000 10000 10000 10000 10000 10000 10000 10000 10000 10000 10000 10000 10000 10000 10000 10000 10000 10000 10000 10000 10000 10000 10000 10000 10000 10000 10000 10000 10000 10000 10000 10000 10000 10000 10000 10000 10000 10000 10000 10000 10000 10000 24979 24979 24979 24979 24979 24979 30222 30222 30222 30222 30222 30222 22720 22720 22720 22720 22720 22720 22720 22720 22720 22720 20719 20719 12887 12887 14533 14533 14533 14533 14533 14533 0 0 0 0 0 0 0 0 0 0 0 0 0 0 0 0 0 0 0 0 0 0 0 0 0 0 0 0 0 0 0 0 0 0 0 0 0 0 0 0 0 0 0 0 0 0 0 6839 6839 6839 10000 10000 10000 10000 10000 10000 10000 10000 10000 10000 10000 10000 10000 10000 10000 10000 10000 10000 10000 10000 10000 10000 10000 10000 10000 10000 10000 10000 10000 10000 10000 10000 10000 10000 10000 10000 10000 10000 10000 10000 10000 10000 10000 10000 10000 10000 24979 24979 24979 24979 24979 30222 30222 30222 30222 30222 30222 30222 22720 22720 22720 22720 22720 22720 22720 22720 22720 20719 20719 12887 12887 12887 12887 12887 12887 12887 12887 12887 0 0 0 0 0 0 0 0 0 0 0 0 0 0 0 0 0 0 0 0 0 0 0 0 0 0 0 0 0 0 0 0 0 0 0 0 0 0 0 0 0 0 0 0 0 0 0 0 6839 10000 10000 10000 10000 10000 10000 10000 10000 10000 10000 10000 10000 10000 10000 10000 10000 10000 10000 10000 10000 10000 10000 10000 10000 10000 10000 10000 10000 10000 10000 10000 10000 10000 10000 10000 10000 10000 10000 10000 10000 10000 10000 10000 10000 10000 10000 10000 10000 24979 24979 24979 30222 30222 30222 30222 30222 30222 30222 30222 22720 22720 22720 22720 22720 22720 22720 22720 22720 20719 20719 12887 12887 12887 12887 12887 12887 12887 12887 12887 0 0 0 0 0 0 0 0 0 0 0 0 0 0 0 0 0 0 0 0 0 0 0 0 0 0 0 0 0 0 0 0 0 0 0 0 0 0 0 0 0 0 0 0 0 0 0 0 10000 10000 10000 10000 10000 10000 10000 10000 10000 10000 10000 10000 10000 10000 10000 10000 10000 10000 10000 10000 10000 10000 10000 10000 10000 10000 10000 10000 10000 10000 10000 10000 10000 10000 10000 10000 10000 10000 10000 10000 10000 10000 10000 10000 10000 10000 10000 10000 10000 24979 24979 30222 30222 30222 30222 30222 30222 30222 30222 30222 30222 22720 22720 22720 22720 22720 22720 22720 20719 12887 12887 12887 12887 12887 12887 12887 12887 12887 12887 12887 0 0 0 0 0 0 0 0 0 0 0 0 0 0 0 0 0 0 0 0 0 0 0 0 0 0 0 0 0 0 0 0 0 0 0 0 0 0 0 0 0 0 0 0 0 0 0 0 10000 10000 10000 10000 10000 10000 10000 10000 10000 10000 10000 10000 10000 10000 10000 10000 10000 10000 10000 10000 10000 10000 10000 10000 10000 10000 10000 10000 10000 10000 10000 10000 10000 10000 10000 10000 10000 10000 10000 10000 10000 10000 10000 10000 10000 10000 10000 10000 10000 26118 26118 30222 30222 30222 30222 30222 30222 30222 30222 30222 30222 30222 22720 22720 22720 22720 22720 20719 12887 12887 12887 12887 12887 12887 12887 12887 12887 12887 12887 12887 0 0 0 0 0 0 0 0 0 0 0 0 0 0 0 0 0 0 0 0 0 0 0 0 0 0 0 0 0 0 0 0 0 0 0 0 0 0 0 0 0 0 0 0 0 0 0 10000 10000 10000 10000 10000 10000 10000 10000 10000 10000 10000 10000 10000 10000 10000 10000 10000 10000 10000 10000 10000 10000 10000 10000 10000 10000 10000 10000 10000 10000 10000 10000 10000 10000 10000 10000 10000 10000 10000 10000 10000 10000 10000 10000 10000 10000 10000 10000 10000 10000 26118 26118 26118 30222 30222 30222 30222 30222 30222 30222 30222 30222 30222 22720 22720 22720 12887 12887 12887 12887 12887 12887 12887 12887 12887 12887 12887 12887 12887 12887 12887 0 0 0 0 0 0 0 0 0 0 0 0 0 0 0 0 0 0 0 0 0 0 0 0 0 0 0 0 0 0 0 0 0 0 0 0 0 0 0 0 0 0 0 0 0 0 0 0 10000 10000 10000 10000 10000 10000 10000 10000 10000 10000 10000 10000 10000 10000 10000 10000 10000 10000 10000 10000 10000 10000 10000 10000 10000 10000 10000 10000 10000 10000 10000 10000 10000 10000 10000 10000 10000 10000 10000 10000 10000 10000 10000 10000 10000 10000 10000 10000 27273 27273 26118 26118 26118 30222 30222 30222 30222 30222 30222 30222 30222 30222 22720 12887 12887 12887 12887 12887 12887 12887 12887 12887 12887 12887 12887 12887 12887 12887 12887 12887 0 0 0 0 0 0 0 0 0 0 0 0 0 0 0 0 0 0 0 0 0 0 0 0 0 0 0 0 0 0 0 0 0 0 0 0 0 0 0 0 0 0 0 0 0 0 0 0 10000 10000 10000 10000 10000 10000 10000 10000 10000 10000 10000 10000 10000 10000 10000 10000 10000 10000 10000 10000 10000 10000 10000 10000 10000 10000 10000 10000 10000 10000 10000 10000 10000 10000 10000 10000 10000 10000 10000 10000 10000 10000 10000 10000 10000 10000 10000 27273 27273 27273 27273 26118 28978 28978 30222 30222 30222 30222 30222 17284 17284 17284 17284 12887 12887 12887 12887 12887 12887 12887 12887 12887 12887 12887 12887 12887 12887 12887 12887 0 0 0 0 0 0 0 0 0 0 0 0 0 0 0 0 0 0 0 0 0 0 0 0 0 0 0 0 0 0 0 0 0 0 0 0 0 0 0 0 0 0 0 0 0 0 0 0 0 10000 10000 10000 10000 10000 10000 10000 10000 10000 10000 10000 10000 10000 10000 10000 10000 10000 10000 10000 10000 10000 10000 10000 10000 10000 10000 10000 10000 10000 10000 10000 10000 10000 10000 10000 10000 10000 10000 10000 10000 10000 10000 10000 10000 10000 10000 10000 27273 27273 27273 27273 28978 28978 28978 13830 13830 17284 17284 17284 17284 17284 17284 12887 12887 12887 12887 12887 12887 12887 12887 12887 12887 12887 12887 12887 12887 12887 12887 12887 0 0 0 0 0 0 0 0 0 0 0 0 0 0 0 0 0 0 0 0 0 0 0 0 0 0 0 0 0 0 0 0 0 0 0 0 0 0 0 0 0 0 0 0 0 0 0 0 0 10000 10000 10000 10000 10000 10000 10000 10000 10000 10000 10000 10000 10000 10000 10000 10000 10000 10000 10000 10000 10000 10000 10000 10000 10000 10000 10000 10000 10000 10000 10000 10000 10000 10000 10000 10000 10000 10000 10000 10000 10000 10000 10000 10000 10000 10000 10000 27273 27273 27273 27273 28978 28978 13830 13830 13830 17284 17284 17284 17284 17284 17284 17284 12887 12887 12887 12887 12887 12887 12887 12887 12887 12887 12887 12887 12887 12887 12887 12887 0 0 0 0 0 0 0 0 0 0 0 0 0 0 0 0 0 0 0 0 0 0 0 0 0 0 0 0 0 0 0 0 0 0 0 0 0 0 0 0 0 0 0 0 0 0 0 0 0 10000 10000 10000 10000 10000 10000 10000 10000 10000 10000 10000 10000 10000 10000 10000 10000 10000 10000 10000 10000 10000 10000 10000 10000 10000 10000 10000 10000 10000 10000 10000 10000 10000 10000 10000 10000 10000 10000 10000 10000 10000 10000 10000 10000 10000 10000 10000 27273 27273 27273 21608 21608 21608 13830 13830 13830 17284 17284 17284 17284 17284 17284 17284 12887 12887 12887 12887 12887 12887 12887 12887 12887 12887 12887 12887 12887 12887 12887 12887 0 0 0 0 0 0 0 0 0 0 0 0 0 0 0 0 0 0 0 0 0 0 0 0 0 0 0 0 0 0 0 0 0 0 0 0 0 0 0 0 0 0 0 0 0 0 0 0 0 10000 10000 10000 10000 10000 10000 10000 10000 10000 10000 10000 10000 10000 10000 10000 10000 10000 10000 10000 10000 10000 10000 10000 10000 10000 10000 10000 10000 10000 10000 10000 10000 10000 10000 10000 10000 10000 10000 10000 10000 10000 10000 10000 10000 10000 10000 10000 10000 27273 21608 21608 21608 21608 21608 13830 13830 17284 17284 17284 17284 17284 17284 17284 12887 12887 12887 12887 12887 12887 12887 12887 12887 12887 12887 12887 12887 12887 12887 0 0 0 0 0 0 0 0 0 0 0 0 0 0 0 0 0 0 0 0 0 0 0 0 0 0 0 0 0 0 0 0 0 0 0 0 0 0 0 0 0 0 0 0 0 0 0 0 0 0 10000 10000 10000 10000 10000 10000 10000 10000 10000 10000 10000 10000 10000 10000 10000 10000 10000 10000 10000 10000 10000 10000 10000 10000 10000 10000 10000 10000 10000 10000 10000 10000 10000 10000 10000 10000 10000 10000 10000 10000 10000 10000 10000 10000 10000 10000 10000 10000 10000 21608 21608 21608 21608 21608 13830 13830 17284 17284 17284 17284 17284 17284 12887 12887 12887 12887 12887 12887 12887 12887 12887 12887 23374 23374 23374 23374 23374 23374 0 0 0 0 0 0 0 0 0 0 0 0 0 0 0 0 0 0 0 0 0 0 0 0 0 0 0 0 0 0 0 0 0 0 0 0 0 0 0 0 0 0 0 0 0 0 0 0 0 0 10000 10000 10000 10000 10000 10000 10000 10000 10000 10000 10000 10000 10000 10000 10000 10000 10000 10000 10000 10000 10000 10000 10000 10000 10000 10000 10000 10000 10000 10000 10000 10000 10000 10000 10000 10000 10000 10000 10000 10000 10000 10000 10000 10000 10000 10000 10000 10000 10000 21608 21608 21608 21608 28888 28888 28888 28888 17284 17284 17284 17284 17284 12887 790 12887 12887 12887 12887 12887 23374 23374 23374 23374 23374 23374 23374 23374 23374 23374 0 0 0 0 0 0 0 0 0 0 0 0 0 0 0 0 0 0 0 0 0 0 0 0 0 0 0 0 0 0 0 0 0 0 0 0 0 0 0 0 0 0 0 0 0 0 0 0 0 10000 10000 10000 10000 10000 10000 10000 10000 10000 10000 10000 10000 10000 10000 10000 10000 10000 10000 10000 10000 10000 10000 10000 10000 10000 10000 10000 10000 10000 10000 10000 10000 10000 10000 10000 10000 10000 10000 10000 10000 10000 10000 10000 10000 10000 10000 10000 10000 10000 10000 21608 21608 28888 28888 28888 28888 28888 28888 17284 17284 17284 790 790 790 790 12887 23374 23374 23374 23374 23374 23374 23374 23374 23374 23374 23374 23374 23374 0 0 0 0 0 0 0 0 0 0 0 0 0 0 0 0 0 0 0 0 0 0 0 0 0 0 0 0 0 0 0 0 0 0 0 0 0 0 0 0 0 0 0 0 0 0 0 0 0 10000 10000 10000 10000 10000 10000 10000 10000 10000 10000 10000 10000 10000 10000 10000 10000 10000 10000 10000 10000 10000 10000 10000 10000 10000 10000 10000 10000 10000 10000 10000 10000 10000 10000 10000 10000 10000 10000 10000 10000 10000 10000 10000 10000 10000 10000 10000 10000 10000 15689 15689 28888 28888 28888 28888 28888 28888 28888 28888 17284 790 790 790 790 790 23374 23374 23374 23374 23374 23374 23374 23374 23374 23374 23374 23374 23374 23374 0 0 0 0 0 0 0 0 0 0 0 0 0 0 0 0 0 0 0 0 0 0 0 0 0 0 0 0 0 0 0 0 0 0 0 0 0 0 0 0 0 0 0 0 0 0 0 6510 6510 10000 10000 10000 10000 10000 10000 10000 10000 10000 10000 10000 10000 10000 10000 10000 10000 10000 10000 10000 10000 10000 10000 10000 10000 10000 10000 10000 10000 10000 10000 10000 10000 10000 10000 10000 10000 10000 10000 10000 10000 10000 10000 10000 10000 10000 10000 10000 10000 15689 15689 15689 28888 28888 28888 28888 28888 28888 28888 28888 790 790 790 790 790 790 23374 23374 23374 23374 23374 23374 23374 23374 23374 23374 23374 23374 23374 23374 0 0 0 0 0 0 0 0 0 0 0 0 0 0 0 0 0 0 0 0 0 0 0 0 0 0 0 0 0 0 0 0 0 0 0 0 0 0 0 0 0 0 0 0 0 0 6510 6510 6510 10000 10000 10000 10000 10000 10000 10000 10000 10000 10000 10000 10000 10000 10000 10000 10000 10000 10000 10000 10000 10000 10000 10000 10000 10000 10000 10000 10000 10000 10000 10000 10000 10000 10000 10000 10000 10000 