<?xml version="1.0"?>
<VTKFile type="ImageData" version="0.1" byte_order="LittleEndian">
<ImageData WholeExtent="0 128 0 128 0 1" Origin="0 0 0" Spacing="1 1 1">
<Piece Extent="0 128 0 128 0 1">
<PointData>
</PointData>
<CellData Scalars="Spin">
<DataArray type="Int32" Name="Spin" format="ascii" RangeMin="0" RangeMax="30443">
18525 18501 17639 18525 17639 18525 18525 18525 18525 18525 18525 18525 18525 14189 14189 14189 14189 18419 14189 18419 18419 18419 18419 18419 14189 14189 18606 18419 18606 18419 18419 18419 18419 18419 18419 18419 18419 18419 18419 18419 18419 20164 20164 18419 18419 18419 18419 18419 18419 18419 17416 17416 17416 18419 20141 20141 20141 20141 12398 20225 20225 22059 12398 12398 12398 12398 12398 20225 20225 20225 20225 14955 21716 14955 20225 20141 14955 19367 20141 20225 19367 19367 19367 19367 19367 20225 20225 18473 18473 18473 18473 18473 18473 18473 18473 14074 14074 14074 14074 14074 18473 18473 18473 18473 18525 18473 18473 18473 18473 18473 18525 20049 20049 20049 20049 20049 20049 20049 20049 20049 20049 20049 20049 20049 20049 20049 18525 18525 18525 18525 20049 18525 18525 18525 18525 17639 18525 18525 18525 18525 18525 18525 14189 14189 14189 14189 17639 18419 18419 18419 18419 18419 18419 18419 18419 18419 18419 18419 18419 18419 18419 18419 18419 18419 18419 18419 18419 18419 20164 20164 18419 18419 18419 18419 18419 18419 18419 17416 18419 17416 17416 19281 19281 19281 19281 19281 20141 20141 20225 12398 20141 20225 12398 22059 20141 12398 20225 20225 20225 21716 14955 20141 20141 20141 20141 20141 20225 19367 19367 19367 19367 19367 20225 19367 20225 18473 18473 18473 18473 18473 18473 18473 14074 14074 18473 14074 14074 14074 14074 14074 18473 18473 18473 18525 18473 18525 18473 18473 20049 20049 20049 20049 20049 20049 20049 20049 20049 20049 20049 20049 20049 20049 20049 20049 18525 18525 18525 18525 18525 18525 18525 20253 17639 18525 18525 18525 18525 18525 18525 18525 18525 14189 14189 17639 17639 18419 18419 18419 18419 18419 14189 18419 18419 18419 18419 18419 18419 18419 18419 18419 18419 18419 18419 18419 18419 18419 18419 20164 18419 18419 18419 18419 18419 18419 18419 18419 18419 18419 18419 20141 18419 19281 19281 20141 19281 20225 20141 20141 12398 20141 20141 20225 20141 20225 20225 20225 21716 21716 21716 20141 20141 20141 20225 20225 20225 20225 19367 19367 19367 19367 19367 20225 20225 18473 18473 18473 18473 18473 18473 18473 18473 14074 14074 14074 14074 14074 18473 14074 18473 18473 18525 18525 18473 18473 18473 18473 20049 18473 20049 20049 20049 20049 20049 20049 20049 20049 20049 20049 16618 16618 20049 20049 20049 18525 18501 18501 18525 18525 18525 20253 18525 18525 17639 16618 18525 18525 18525 18525 14189 18525 14189 17639 17639 18419 18419 18419 18419 18419 14189 18419 18419 18419 18419 18419 18419 18419 18419 18419 18419 18419 18419 18419 18419 18419 18419 18419 18419 18419 18419 18419 18419 18419 18419 18419 18419 18419 18419 20141 20141 20141 19281 19281 20141 19281 20141 19281 20141 20225 20141 19612 19612 19612 20225 20141 20225 21716 21716 21716 20141 20225 20225 20225 20225 20225 19367 19367 19367 18417 20225 19367 18417 18473 18473 18473 18473 18473 18473 18473 18473 18473 14074 14074 17504 18473 14074 18473 18473 18525 18525 18473 18473 18473 20049 18473 18473 20049 20049 20049 20049 20049 20049 20049 20049 20049 20049 20049 20049 16618 16618 16618 20049 18525 18501 16618 18525 18525 18525 20253 18525 17639 17639 16618 16618 18525 18525 18525 14189 17639 14189 14189 14189 18419 18419 17639 18419 17639 18419 18419 18419 18419 18419 18419 18419 18419 18419 18419 18419 18419 18419 18419 18606 18606 18419 18419 18419 18419 18419 18419 18419 18419 18419 18419 18419 18419 18419 19281 19281 19281 19281 19281 19281 20141 20141 20141 20225 20225 20141 19612 20225 20225 20225 20225 20225 20141 21716 21716 21716 20225 20225 20225 20225 20225 18417 18417 18417 20225 20225 18417 18473 18473 18473 18473 18473 18473 18473 18473 18473 18473 18473 14074 18473 17504 17504 18473 18473 18473 18473 18473 18473 18473 18473 18473 17477 20049 20049 20049 20049 20049 16618 20049 20049 16618 20049 20049 16618 16618 16618 14189 14189 18525 18525 16618 16618 18525 18525 18525 17639 17639 16618 17639 16618 18525 18525 14189 14189 17639 18419 14189 14189 17639 18419 17639 17639 17639 17639 18419 17639 17639 18419 18419 18419 18419 18419 14191 18419 18419 18419 18606 18419 18606 18419 18419 18419 18419 18419 18606 18419 18419 18419 18419 18419 18419 18419 20141 20141 20141 19281 19281 19281 20141 20141 20141 20141 20225 20141 20225 20225 20225 20225 21716 20225 20225 20225 21716 18417 18417 20225 20225 20225 18417 18417 18417 18417 18417 18417 18473 18473 18473 20225 18473 18473 18473 18473 18473 18473 18473 17504 18473 18473 18473 18473 18473 18473 18473 17477 18473 18473 20049 20049 18473 17477 20049 20049 20049 20049 20049 20049 20049 20049 16618 16618 20049 16618 16618 16618 16618 14189 16618 16618 16618 16618 20253 18525 20253 17639 17639 17639 16618 16618 18525 14189 17639 17639 14189 17639 18419 18419 18419 17639 17639 17639 17639 18419 18419 17639 18419 18419 18419 14191 14191 14191 18419 14191 18419 18419 18419 18606 18419 18419 18419 18419 18419 18419 18419 18606 20141 20141 18419 18419 18419 18419 20141 20141 19281 19281 19281 19281 19281 19281 19281 20141 20225 19281 20225 20141 20225 21716 21716 20141 21716 20225 18417 18417 21716 21716 18417 20225 18417 18417 18417 18417 18417 18417 18473 18473 20225 18473 18473 18473 18473 17504 17504 18473 18473 17504 17504 17504 18473 18473 18473 18473 17477 18473 20049 20049 20049 20049 17477 17477 20049 20049 20049 20049 20049 20049 20049 16618 16618 16618 16618 16618 16618 16618 16618 16618 14072 16618 16618 20253 18525 18525 20253 20253 17639 16618 16618 16618 16618 17639 17639 17639 17639 17639 17639 18419 18419 17639 17639 17639 17639 17639 17639 17639 18419 14191 14191 14191 14191 14191 14191 16704 14191 14191 18606 18606 18419 18606 18419 18419 18606 18606 18419 20141 20141 18419 20141 18419 18419 18419 18419 20141 20141 19612 19281 19281 19281 19281 19281 19281 20141 20141 19281 20141 20141 20141 20225 21716 21716 18417 21716 21716 21716 21716 20225 20225 18417 18417 18417 18417 20225 20225 18473 17504 18473 18473 17504 18473 17504 17504 17504 18473 18473 17504 17504 17504 17504 18473 18473 18473 18473 18473 20049 20049 20049 20049 17477 17477 20049 20049 20049 20049 20049 20049 16618 16618 16618 16618 16618 16618 16618 16618 16618 16618 14072 16618 20253 18525 20253 20253 16618 20253 20253 16618 16618 16618 16618 17639 17639 17639 17639 17639 14189 14189 17639 17639 17639 17639 17639 18419 17639 17639 17639 17639 17857 17857 14191 14191 18419 16704 18419 18419 14191 18606 18606 18606 18419 18419 18606 18606 18606 18419 20141 20141 18419 18419 18419 18419 18419 20141 20141 20141 19612 19612 19612 19281 19281 19281 19281 20141 20141 20141 21716 20225 20225 20225 18417 20141 20141 18417 18417 21716 18417 18417 18417 18417 18417 18417 20225 20225 17504 17504 17504 17504 18473 17504 17504 17504 17504 18473 17504 17504 17504 17504 17504 18473 18473 18473 17477 17477 17477 20049 20049 20049 20049 20049 20049 20049 20049 20049 20049 18525 18525 16618 16618 16618 16618 16618 16618 16618 16618 16618 16618 16618 16618 16618 16618 16618 16618 16618 17639 16618 16618 16618 16618 17639 16618 17639 17639 17639 18419 18419 17639 18419 18419 18419 17639 17639 17639 17639 17639 17639 17857 14191 14191 14191 18419 18419 16704 16704 16704 18606 18606 18606 18606 18419 18419 18419 18419 18419 18419 20141 18419 18419 18419 18419 18419 20141 20141 20141 20141 20141 19612 19281 19612 20141 20141 21716 21716 20225 20225 21716 21716 21716 20141 20141 18417 20141 18417 18417 18417 20225 18417 18417 18417 20225 20225 20225 20225 17504 17504 17504 17504 17504 17504 17504 17504 17504 17504 18473 18473 17504 17504 18473 18473 18473 18473 17477 17477 20049 20049 20049 20049 20049 20049 17477 17477 17477 17477 17477 16618 16618 16618 16618 16618 16618 16618 16618 17557 16618 20253 16618 16618 14072 14072 16618 16618 17639 20253 20253 17557 17639 16618 16618 16618 16618 16618 17639 17639 17639 18419 18419 18419 17639 17639 17639 18419 18419 17639 17639 17857 14191 14191 18419 18419 18419 14191 14191 16704 16704 18606 18606 18419 18606 18419 18419 16704 18419 20141 18419 20141 18419 18419 18419 20141 19281 19281 20141 20141 20141 20141 20141 20141 20141 20141 21716 19612 20141 21716 21716 21716 20141 20141 20141 22495 22495 22495 20141 18417 18417 18417 18417 18417 17504 20225 20225 18417 17504 17504 17504 17504 17504 17504 17504 17504 17504 17504 18473 18473 18473 17504 18473 17504 17504 17477 17477 17477 20049 20049 17477 20049 20049 17477 17477 17477 17477 17477 16618 16618 16618 16618 16618 16618 20049 16618 17557 16618 16618 16618 14072 14072 14072 16618 20253 20253 20253 16618 17557 17557 17557 16618 16618 16618 16618 17557 18419 17639 18419 18419 17639 17639 17639 17639 17639 18419 18419 18419 17857 18419 18419 18606 18606 14191 14191 14191 14191 18419 16704 18419 18419 18606 18606 18419 20141 16704 20141 18419 18419 18419 18419 20141 19281 19281 19281 20141 20141 20141 20141 20141 20141 20141 20141 19612 19612 20141 20141 21716 21716 21716 20141 21716 20141 20141 22495 20141 20141 20107 20107 18417 18417 17504 20225 20225 17504 18417 17504 17504 17504 17504 17504 17504 17504 17504 17504 17504 18473 17504 17504 17504 17504 17477 17504 17477 17477 20049 17477 17477 20049 20049 20049 17477 17477 17477 17477 17477 17477 16618 16618 16618 20049 16618 16618 17557 16618 16618 16618 16618 17557 14072 14072 14072 16618 20253 20253 20253 17557 16618 17557 16618 16618 16618 16618 17557 17639 17639 17639 17639 17639 17639 17639 17639 17639 17639 18419 18419 18419 17857 16704 16704 18606 14191 14191 14191 14191 18419 18419 20141 20141 18419 18606 18606 20141 20141 18419 18419 18419 18419 18419 20141 19281 19281 19281 20141 20141 20141 20141 20141 20141 20141 20141 20141 20141 20141 20107 19612 21716 21716 21716 20141 21716 20141 20141 20141 20107 20141 17504 17504 17504 17504 17504 18417 18417 17504 17504 17504 17504 17504 17504 17504 17504 17504 17504 17504 17504 17504 17504 17504 18473 17477 17477 17504 17504 17477 17477 16618 16618 16618 17477 17477 17477 17477 17477 17477 17477 17477 16618 16618 17477 20049 16618 17557 16618 16618 14072 16618 14072 17557 14072 14072 14072 20253 16618 17557 17557 16618 16618 16618 16618 16618 16618 17639 17639 17639 16618 17639 17639 17639 17639 17639 17639 17639 17639 18419 17639 16704 16704 16704 14191 15773 15773 15773 15773 18419 20141 20141 18419 18419 18419 18419 20141 20141 18419 18419 20141 20141 18419 20141 19281 20141 20141 20141 20141 20141 20141 20141 20141 20141 19612 20141 20141 20141 20107 20107 19612 21716 21716 21716 20141 20141 20141 18417 18417 18417 20107 22495 17504 17504 17504 18417 18417 17504 17504 17504 17504 17504 17504 17504 17504 17504 17504 17504 17504 18473 17504 17477 17477 17477 17477 17477 17477 17477 17477 17477 17477 20049 20049 17477 17477 17477 17477 17477 17477 17477 20049 16618 16618 20049 20049 16618 16618 16618 14072 16618 14072 17557 14072 14072 14072 17557 20253 17557 17557 17557 16618 16618 17557 16618 17557 17639 17639 17639 17639 16618 17639 16618 17639 17639 17639 17639 17639 17639 15773 17639 16704 16704 14191 14191 15773 15773 15773 16704 16704 16704 16704 18419 18419 20141 20141 20141 18419 16704 20141 20141 20141 20141 20141 20141 20141 20141 20141 20141 20141 20141 19612 20141 20141 20141 20141 20141 20107 20107 20107 20107 20107 20141 20141 20141 20141 18417 22495 18417 22495 17504 17504 17504 17504 17504 17504 18417 17504 17504 17504 17504 17504 17504 17504 17504 17504 17504 17504 17504 21524 17504 16618 17477 17477 17477 17477 17477 17477 20049 17477 17477 17477 20049 17477 17477 17477 17477 17477 20049 20049 16618 17557 16618 16618 17557 16618 14072 14072 17557 17557 14072 16618 14072 17557 20253 20253 17557 17557 16618 16618 17557 17557 17639 16618 16618 17639 17639 17639 16618 16618 16618 16618 17639 17639 17639 17639 17639 15773 15773 16704 16704 18606 18606 18606 15773 15773 16704 16704 16704 16704 16704 18419 20141 20141 16704 16704 16704 16704 16704 20141 20141 20141 16704 20141 20141 20141 20141 20141 20141 19612 20141 20141 20141 21213 20107 20107 20107 20107 20107 20107 21716 20107 20141 20141 18417 20107 20107 17504 22495 17504 17504 17504 17504 17504 17504 16673 17504 17504 16673 17504 17504 17504 17504 17504 17504 17504 21524 16618 21524 16618 17477 17477 17477 16618 17477 17477 17477 17477 17477 16618 16618 17477 17477 16618 16618 16618 20049 20049 16618 16618 17557 17557 16618 17557 16618 16618 14072 14072 16618 17557 14072 20253 17557 17557 20253 17557 17557 17557 17557 17557 16618 16618 17639 16618 17639 17639 16618 16618 16618 16618 17639 17639 17639 17639 15773 17639 15773 15773 15773 18606 18606 16704 16704 16704 16704 16704 16704 18419 16704 20141 20141 20141 20141 20141 16704 16704 16704 20141 20141 20141 16704 20141 20141 20141 20141 20141 20141 19612 20141 20141 20141 20141 21213 20107 20107 21716 21716 21716 20141 20107 20107 20141 18417 20107 18417 18417 17504 17504 17504 17504 17504 17504 17504 17504 16673 16673 16673 17504 17504 17504 17504 21524 21524 21524 21524 16618 21524 21524 16618 17477 16618 17477 17477 17477 17477 17477 17477 17477 17477 16618 16618 17477 17477 17477 16618 20049 16618 16618 16618 17557 17557 16618 14072 16618 16618 16618 17557 17557 14072 20253 20253 17557 20253 20253 16618 20253 16618 16618 16618 16618 16618 16618 17639 16618 17639 17639 16618 17639 17639 17639 17639 15061 15773 15773 15773 17639 15773 15773 16704 18606 16704 16704 16704 16704 16704 18419 18419 18419 20141 16704 16704 16704 16704 16704 16704 16704 16704 20141 16704 16704 20141 20141 20141 20141 20141 19612 19612 20141 20141 20141 20141 21213 21213 20141 21716 21213 20107 20107 20107 20107 21213 18417 18417 18417 18417 17504 17504 17504 18417 17504 17504 16673 16673 16673 16673 17504 17504 17504 17504 17504 21524 21524 21524 21524 16618 13165 17477 16618 17477 16618 17477 17477 17477 17477 17477 17477 17477 16618 17477 17477 16618 16618 16618 16618 16618 16618 17557 17557 17557 16618 16618 16618 16618 16618 16618 16618 20253 17557 17557 17557 20253 17557 16618 17557 16618 16618 16618 15012 16618 16618 19983 16618 17639 16618 17639 17639 17639 17639 15061 15773 15773 15773 15773 15773 17639 16704 16704 16704 16704 16704 16704 16704 16704 15061 16704 16704 18419 16704 16704 16704 16704 16704 16704 16704 20141 20141 20141 16704 20141 16704 20141 20141 20141 18441 19612 19612 20141 20141 20141 20141 21213 21716 21213 21213 21213 20107 18417 20107 18417 18417 17504 18417 17504 17504 17504 18417 18417 16673 17504 17504 16673 16673 18417 17504 17504 17504 17504 17504 17504 16618 21524 21524 16618 16618 13165 13165 17477 17477 17477 16618 17477 16618 17477 17477 17477 17477 16618 17477 16618 16618 16618 16618 16618 16618 16618 16618 16618 16618 16618 16618 16618 16618 20253 20253 20253 17557 17557 17557 17557 17557 17557 17557 15012 16618 15012 16618 15012 19983 19983 19983 16618 19983 19983 15061 17639 15061 15061 15061 15061 15061 15773 15773 15061 15773 16704 16704 16704 15061 16704 16704 16704 18419 16704 16704 16704 16704 16704 16704 16704 16704 16704 16704 16704 16704 20141 20141 16704 18441 16704 16704 18441 18441 19612 19612 20141 20141 20141 20141 20141 18417 21213 18417 21716 20107 18417 17504 17504 17504 17504 18417 18417 18417 18417 18417 20225 16673 16673 18417 18417 18417 17504 18417 17504 17504 17504 17504 16618 21524 16618 16618 16618 13165 13165 17477 17477 17477 17477 16618 16618 16618 16618 17477 17477 17477 16618 16618 16618 16618 16618 16618 16618 16618 17557 17557 17557 17557 16618 16618 20253 20253 20253 14072 20253 20253 17557 17557 17557 17557 20253 17557 17557 15012 15012 15012 16618 19983 17639 19983 19983 19983 19983 15061 15061 17639 15061 15061 15061 15773 15773 15773 15773 15061 15061 16704 16704 15061 16704 16704 16704 16704 16704 15061 16704 18419 16704 16704 16704 16704 16704 16704 16704 16704 16704 20141 16704 18441 20141 20141 18441 18441 20141 19612 19612 19612 20107 20107 21213 18417 21213 21213 18417 18417 18417 17504 17504 18417 18417 18417 18417 18417 18417 18417 16673 16673 16673 18417 18417 18417 18417 18417 16673 17504 17504 17504 16618 16618 16618 16618 16618 13165 17477 17477 17477 17477 17477 16618 16618 17477 16618 16618 16618 16618 16618 16618 16618 16618 16618 16618 17557 17557 17557 17557 17557 17557 16618 16618 16618 14072 14072 20253 14072 14072 20253 17557 20253 20253 17557 17557 17557 15012 15012 16618 16618 16618 16680 16680 14191 15012 19983 14191 14191 17639 15773 18357 15773 15773 15773 15773 15773 15773 15061 16704 15061 16704 16704 16704 15061 15061 15061 15061 16704 18419 16704 16704 16704 16704 16704 16704 16704 16704 16704 16704 18441 16704 16704 18441 20141 21213 21213 21213 19612 19612 20107 21213 21213 21213 18417 18417 18417 18417 18417 17504 18417 18417 17504 18417 18417 18417 18417 18417 20225 20225 20225 18417 18417 18417 18417 18417 17504 17504 18417 16618 16618 16618 16618 16618 16618 16618 16618 16618 17477 17477 17477 16618 16618 17477 17477 16618 16618 16618 16618 16618 16618 16618 20253 20253 20253 17557 17557 17557 17557 17557 16618 20253 16618 20253 16618 20253 14072 14072 20253 17557 17557 20253 20253 17557 17557 20253 16618 16618 16618 16618 16680 16680 15012 15061 15012 15061 15061 15061 18357 18357 18357 22760 15773 15773 15773 16704 15773 15061 15061 15061 15061 15061 15061 15061 16704 15061 16704 16704 18419 16704 16704 16704 16704 16704 16704 16704 16704 16704 16704 16704 20141 18441 18441 21213 21213 18441 18441 20107 20107 20107 21213 20048 21213 18417 18417 18417 18417 18417 18417 20225 18417 18417 18417 18417 20225 20225 18417 20225 18417 18417 18417 18417 18417 18417 18417 18417 18417 18417 16618 16618 16618 16618 16618 16618 16618 16618 16618 16618 17477 16618 17477 17477 20253 16618 20253 16618 16618 20253 20253 16618 16618 20253 20253 20253 16618 17557 17557 16618 16618 16618 14072 20253 14072 14072 20253 14072 20253 17557 17557 17557 20253 16618 16618 20253 16618 16618 16618 16618 15012 15012 15012 14191 15061 15061 15061 18357 18357 18357 18357 15773 18357 15773 15773 15773 16704 15773 15061 15768 15061 15061 15061 15061 16704 15061 16704 15061 18419 18419 18441 16704 16704 16704 16704 16704 16704 16704 16704 20141 16704 18441 18441 21213 18441 20141 18441 20107 21213 21213 20048 21213 20048 14216 18417 18417 18417 18417 18417 18417 20225 20225 18417 18417 18417 18417 20225 18417 18417 18417 18417 18417 18417 18417 18417 18417 18417 18417 18417 16618 16618 16618 16618 16618 16618 16618 16618 16618 16618 17477 17477 17477 16618 20253 20253 20253 20253 20253 16618 16618 16618 16618 20253 16618 20253 20253 16618 16618 16618 16618 16618 20253 20253 14072 14072 14072 20253 17557 20253 20253 20253 16618 16618 16618 16618 16618 16618 16618 16618 15012 15012 14191 14191 14191 18357 15061 18357 15061 18357 18357 22760 22760 22760 22760 15773 16704 15061 15773 15061 15061 15061 15061 15061 16704 15061 15061 16704 18441 18441 18441 18441 18441 16704 16704 16704 20141 16704 20141 20141 16704 18441 18441 20141 20141 20141 21213 21213 21213 21213 20048 14216 20048 14216 14216 18417 18417 18417 18417 20225 18417 18417 18417 18417 18417 18417 18417 18417 18417 18417 18417 18417 18417 18417 18417 18417 18417 18417 16618 16618 16618 22262 16618 16618 16618 16618 16618 16618 17477 17477 17477 16618 16618 16618 20253 20253 20253 20253 20253 16618 20253 20253 20253 20253 20253 20253 17557 16618 16618 14072 14072 14072 14072 16680 14072 14072 15012 20253 20253 15012 16618 16618 16618 15012 16680 16618 15012 16618 16618 15012 15061 15061 14191 15012 15061 15061 15012 15012 18357 22760 15768 22760 22760 15768 16704 20048 15768 15768 15768 15061 20048 16704 15061 15061 15061 16704 18441 18441 16704 20048 16704 16704 16704 16704 20141 20141 20141 20141 18441 18441 20141 18441 16704 16704 18441 18441 21213 14216 14216 20048 14216 14216 14216 14216 18417 18417 18417 20225 18417 18417 18417 18417 18417 18417 18417 18417 18417 18417 18417 16673 18417 18417 18417 18417 18417 18417 16618 16618 16618 16618 16618 16618 16618 16618 16618 16618 16618 16673 17477 16618 16618 16618 20253 20253 20253 20253 20253 20253 20253 20253 20253 20253 20253 17557 20253 17557 20253 16680 16680 14072 16680 16680 16680 16680 14072 14072 20253 15012 15012 20253 15012 16618 15012 16680 16618 16618 18357 15061 18357 15061 18357 18357 15012 15012 15012 15061 22760 22760 22760 22760 22760 15768 15773 20048 15061 15061 16704 15061 20048 20048 16704 15061 16704 15061 20048 18441 18441 16704 16704 16704 16704 16704 16704 20141 20141 16704 18441 18441 16704 16704 16704 16704 16704 14216 21213 21213 14216 14216 14216 14216 14216 18417 14216 14216 18417 20225 20225 18417 18417 18417 20225 18417 18417 18417 18417 18417 18417 18417 18417 18417 18417 18417 16618 16618 18417 16618 13165 16618 16618 16618 16618 16618 16618 16618 16673 16673 16673 20253 16673 20253 20253 20253 20253 20253 16618 20253 20253 20253 20253 20253 20253 20253 20253 17557 17557 16680 16680 20253 16680 16680 16680 14072 16680 16680 16618 16618 16618 16618 15012 16680 16680 16680 19983 19983 15061 18357 18357 18357 18357 17472 17472 15012 15012 18357 18357 22760 22760 15768 22760 18357 18357 20048 20048 16704 15061 15061 18357 20048 15061 20048 16704 16704 20048 20048 20048 16704 16704 16704 16704 16704 16704 20141 16704 20141 18441 18441 18441 16704 16704 16704 21213 18441 21213 21213 14216 14216 14216 14216 16897 18417 14216 18417 18417 18417 18417 18417 22618 22618 18417 18417 18417 18417 18417 18417 18417 18417 18417 18417 18417 16618 16618 16618 16618 16618 16618 16618 16618 16618 22262 16618 16618 16618 20253 20253 20253 16673 20253 20253 20253 20253 20253 20253 20253 20253 20253 20253 20253 20253 16680 16680 17557 17557 20253 16680 20253 16680 16680 16680 16680 16680 16680 14072 14072 16618 16618 16618 16680 16680 16680 16680 19983 16680 18357 18357 16680 18357 17472 17472 15061 15061 15012 15061 18357 18357 15768 22760 15768 22760 18357 20048 20048 20048 20048 18357 15061 15061 20048 20048 20048 16704 16704 20048 20048 15061 15061 15061 16704 16704 16704 16704 20141 20141 16704 16704 16704 16704 16704 18441 18441 21213 14216 21213 14216 14216 16897 14216 14216 16897 18417 16897 18417 18417 18417 22618 22618 22618 18417 18417 18417 18417 18417 18417 18417 18417 18417 18417 18417 18417 16673 16618 16618 16618 16618 22262 22262 16618 16618 16618 16618 20253 20253 20253 20253 20253 20253 20253 20253 20253 20253 20253 16618 20253 20253 20253 16680 16680 16680 16680 16680 20253 17557 16680 16680 16680 16680 16680 16680 16680 15012 14072 15012 15012 16680 16680 16680 16680 16680 16680 16680 16680 16680 16680 16680 18357 17472 17472 17472 15061 15012 15012 22760 22760 22760 15768 18357 18357 20048 20048 18357 18357 20048 16704 16704 20048 20048 15061 20048 15061 16704 20048 16704 16704 16704 16704 14216 14216 14216 16704 16704 16704 14216 16704 16704 16897 14216 16897 16897 14216 14216 14216 14216 14216 14216 18417 16897 16897 18417 18417 16897 22618 18417 16673 16673 16673 22618 22618 18417 18417 18417 16673 18417 18417 18417 18417 16673 16673 16673 16673 16673 16618 16618 22262 22262 22262 16618 16618 16673 16618 16618 16618 20253 20253 20253 20253 20253 20253 20253 20253 20253 20253 20253 20253 20253 16680 16680 16949 16949 16680 17557 16680 16680 16680 16680 16680 16680 16680 16680 15012 15012 15012 16680 16680 16680 16680 16680 16680 16680 16680 16680 16680 16680 16680 17472 17472 15061 15061 15061 15061 22760 22760 15768 15768 18357 18357 18357 18357 18357 18357 16704 16704 16704 16704 20048 20048 20048 20048 20048 16704 16704 14216 16704 16704 16704 14216 14216 16704 16704 16704 16704 14216 16897 18441 14216 18441 18441 14216 21213 21213 16897 16897 14216 16897 18417 18417 18417 16897 16897 18417 22618 18417 22618 18417 22618 18417 18417 16673 18417 18417 18417 16673 16673 16673 16673 16673 16673 16673 16673 16673 16673 16618 22262 22262 16618 16673 22262 16618 16618 16618 22262 20253 20253 20253 16949 20253 20253 20253 20253 20253 20253 20253 16949 16680 16949 16949 16949 16680 16680 16680 16680 15012 16680 16680 16680 16680 16680 15012 15012 15012 15012 20253 16680 16680 16680 16680 16680 16680 16680 16680 16680 16680 16680 15061 17472 17472 15061 17472 15768 15768 15012 22760 18357 18357 16704 16704 18357 16704 18357 20048 16704 16704 20048 20048 20048 20048 15061 15061 16704 14216 20048 16704 14216 16704 14216 16704 16704 16704 14216 14216 18441 14216 16897 18441 18441 14216 21213 21213 16704 16704 16897 16897 18417 18417 18417 16897 18417 22618 18417 18417 16673 16673 16673 18417 18417 18417 16673 16673 16673 16673 16673 16673 16673 16673 16673 16673 16673 16673 16673 16673 16673 22262 22262 16673 22262 22262 16618 16618 16618 22262 22262 20253 16949 16949 20253 20253 20253 20253 20253 20253 16949 16949 16949 16949 16680 16680 16680 16680 15012 16680 16680 16680 16680 16680 16680 16680 16680 20253 20253 20253 20253 20253 16680 16680 16680 16680 16680 16680 16680 17472 17472 15061 15061 17472 15061 17472 15061 15768 15012 15012 15012 18357 16704 16704 18357 16704 16704 16704 18357 20048 15061 20048 15061 15061 15061 16704 15061 20048 14216 16704 16704 14216 14216 14216 14216 16704 14216 14216 14216 18441 16897 16704 18441 18441 14216 21213 16704 16704 16897 16897 18417 18417 18417 16897 16897 16897 18417 16897 16673 16673 16673 18417 16673 16673 16673 16673 16673 16673 16673 16673 16673 16673 16673 16673 22262 16673 16673 16673 14187 14187 14187 14187 14187 16618 16673 14187 14187 14187 22262 22262 22262 22262 22262 20253 20253 20253 16949 16949 20253 16949 16949 16949 16680 16680 16680 15012 15012 16680 16680 16680 16680 16680 16680 16680 20253 20253 16680 20253 20253 16680 20253 16680 16680 16680 16680 16680 17472 17472 17472 15061 15061 15061 15061 15061 15768 15768 15768 15012 18357 18357 18357 18357 18357 16704 16704 18357 18357 15061 15061 15061 15061 20048 15061 15061 20048 20048 15061 20048 15061 14216 14216 14216 20048 14216 20048 14216 20048 16897 16897 16704 16704 16897 14216 14216 16897 16704 21648 21648 18417 18417 18417 18417 16897 16897 16897 18417 16673 16673 16673 16673 16673 16673 16673 16673 16673 16673 16673 16673 16673 16673 16673 16673 22262 22262 16673 22262 16673 14187 14187 14187 14187 16673 16618 14187 14187 14187 14187 14187 22262 22262 17536 14187 17536 17536 17536 16949 16949 16949 16949 16949 16949 16680 16680 16680 15012 15012 16680 16680 16680 16680 16680 16680 16680 20253 16680 20253 16680 16680 16680 16680 16680 16680 16680 16680 17472 17472 17472 15061 17472 15061 15061 15061 15061 18357 18357 15012 15012 18357 18357 18357 18357 20048 18357 18357 18357 20048 18357 15061 15061 15061 20048 15061 15061 16704 20048 15061 20048 20048 14216 14216 20048 20048 18441 20048 16897 16897 14216 14216 14216 14216 16897 16897 16897 16897 21648 21648 16897 21648 18417 18417 21648 21648 16897 16897 16673 16673 16673 16673 16673 16673 16673 16673 16673 16673 16673 16673 16673 16673 16673 16673 22262 16673 22262 22262 22262 14187 14187 14187 14187 16673 16673 16673 14187 14187 14187 17536 16949 17536 17536 17536 17536 17536 17536 16949 16949 16949 16949 16949 16680 16680 16680 16680 15012 15012 16680 16949 16949 16680 16680 20253 20253 20253 16680 16680 20253 18357 16680 16680 18357 16680 16680 18357 18357 18357 18357 17472 15061 17472 15061 18357 18357 18357 18357 18357 18357 15012 18357 20048 20048 18357 15061 18357 18357 20048 20048 15061 15061 15061 15061 15061 20048 16704 20048 20048 20048 20048 20048 20048 20048 18441 20048 18441 14216 16897 14216 14216 14216 16897 16897 16897 16897 16897 21648 21648 16897 16897 21648 21648 21648 16897 16897 16897 16897 16673 16673 16673 16673 16673 16673 16673 16673 20196 16673 16673 16673 16673 16673 16673 16673 16673 22262 14187 14187 14187 14187 14187 14187 16673 16673 14187 14187 14187 14187 14187 17536 17536 17536 17536 17536 17536 17536 17536 16949 16949 16949 20168 16949 15012 15012 16680 15012 16949 16949 16949 20168 16680 16680 16680 16680 16680 16680 20253 20253 18357 18357 18357 16680 16680 16680 18357 17472 17472 18357 18357 17472 17472 15061 18357 18357 15012 18357 18357 20048 18357 18357 18357 20048 20048 18357 18357 15061 18357 20048 20048 15061 23602 23602 15061 20048 15061 20048 15061 15061 15061 15061 20048 20048 20048 18363 20048 16897 14216 14216 14216 16897 16897 16897 16897 16897 16897 21648 21648 21648 16897 18417 21648 16897 16897 21648 16897 16897 16897 16897 16897 16673 20196 16673 16673 16673 20196 16673 20196 16673 20196 16673 16673 16673 16673 22262 22262 14187 14187 14187 14187 14187 14187 16673 16673 14187 14187 14187 16673 16949 16673 17536 17536 17536 17536 16949 16949 16949 16949 20168 20168 16680 15012 16949 16680 16949 18469 16680 16680 16680 20168 16680 15012 16680 18357 18357 20253 18357 18357 18357 16680 16680 16680 16680 17472 18357 18357 16680 18357 17472 17472 17472 15768 18357 18357 18357 18357 18357 20048 20048 18357 20048 20048 18357 18357 18357 20048 20048 20048 20048 15061 23602 15061 15061 20048 15061 15061 14216 20048 20048 15061 15061 20048 18363 18363 14216 16897 14216 16897 16897 16897 16897 16897 16897 16897 21648 21648 16897 18417 18417 21648 21648 16897 16897 16897 16897 16897 16897 16897 22618 20196 20196 16673 16673 16673 20196 20196 20196 20196 16673 16673 16673 16673 22262 22262 14187 22262 14187 14187 14187 14187 14187 16673 14187 16673 14187 14187 17536 17536 17536 17536 16949 17536 16949 16949 16949 16949 16949 20168 20168 16949 20168 16949 18469 18469 18469 16680 16680 16680 16680 16680 16680 16680 18357 18357 18357 18357 16680 16680 16680 16680 16680 17472 17472 16680 17472 17472 18357 17472 15768 17472 15768 18357 15768 18357 20048 20048 20048 20048 20048 20048 18357 18357 20048 20048 20048 20048 20048 15061 20048 15061 20048 15061 15061 14216 14216 15061 20048 20048 20048 15061 18363 18363 14216 14216 16897 16897 14216 14216 14216 14216 14216 16897 16897 21648 16897 18417 18417 21648 16897 16897 16897 16897 16897 16