<?xml version="1.0"?>
<VTKFile type="ImageData" version="0.1" byte_order="LittleEndian">
<ImageData WholeExtent="0 128 0 128 0 1" Origin="0 0 0" Spacing="1 1 1">
<Piece Extent="0 128 0 128 0 1">
<PointData>
</PointData>
<CellData Scalars="Spin">
<DataArray type="Int32" Name="Spin" format="ascii" RangeMin="0" RangeMax="30443">
18501 18501 18501 18501 18501 18501 18501 24153 24153 24153 24153 24153 14189 8772 8772 8772 8772 22579 22789 22789 22789 22789 22789 20920 20920 20920 20920 20920 20920 20920 20920 20920 19875 19875 20634 20634 20634 20634 20634 21268 21268 21268 21268 23693 23693 23693 23693 23693 23693 23693 23693 23693 13280 13280 13280 21716 21716 21716 21716 21716 21716 21716 21716 21716 21716 21716 21716 14981 14981 14981 14981 14981 14981 14981 14981 14981 14981 14981 14981 17444 17444 17444 17444 17444 17444 17444 17444 17444 17444 17444 17444 17444 17444 17444 17444 17444 16623 16623 16623 16623 16623 16623 16623 16623 16623 16623 16623 16623 16623 15777 15777 15777 15777 18501 18501 18501 18501 18501 18501 18501 18501 18501 18501 18501 18501 18501 18501 18501 18501 18501 18501 18501 18501 18501 18501 18115 24153 24153 24153 14189 14189 14189 8772 8772 22579 22579 22579 22789 22789 22789 20920 20920 20920 20920 20920 20920 20920 20920 20920 19875 19875 19875 19875 20634 20634 20634 19580 19580 21268 21268 23693 23693 23693 23693 23693 23693 23693 23693 23693 23693 23693 13280 21716 21716 21716 21716 21716 21716 21716 21716 21716 21716 21716 21716 21716 21716 14981 14981 14981 14981 14981 14981 14981 14981 14981 14981 14101 14101 17444 17444 17444 17444 17444 17444 17444 17444 17444 17444 17444 17444 17444 17444 17444 17444 16623 16623 16623 16623 16623 16623 16623 16623 16623 16623 16623 16623 16623 16623 19444 19444 18501 18501 18501 18501 18501 18501 18501 18501 18501 18501 18501 18501 18501 18501 18501 18501 18501 18501 18501 18501 18501 18501 18115 18115 18115 18115 14189 14189 14189 18496 18496 18496 22579 22579 22579 16771 16771 20920 20920 20920 20920 20920 20920 20920 20920 20920 19875 19875 19875 19875 19875 19875 19580 19580 19580 19580 19580 19580 23693 23693 23693 23693 23693 23693 23693 23693 23693 23693 23693 14890 21716 21716 21716 21716 21716 21716 21716 21716 21716 21716 21716 21716 21716 21716 14981 14981 14981 14981 14981 14981 14981 14981 14981 14101 14101 14101 14101 17444 17444 17444 17444 17444 17444 17444 17444 17444 17444 17444 17444 17444 17444 17444 16623 16623 16623 16623 16623 16623 16623 16623 16623 16623 16623 16623 16623 19444 19444 19444 19444 18501 18501 18501 18501 18501 18501 18501 18501 18501 18501 18501 18501 18501 18501 18501 18501 18501 18501 18501 18501 18115 18115 18115 18115 18115 18115 14189 18496 18496 18496 18496 18496 22579 16771 16771 16771 16771 20920 20920 20920 20920 20920 20920 20920 19875 19875 19875 19875 19875 19875 19875 19580 19580 19580 19580 19580 19580 23693 23693 23693 23693 23693 23693 23693 23693 23693 23693 14890 14890 14890 21716 21716 21716 21716 21716 21716 21716 21716 21716 21716 21716 21716 21716 21716 14981 14981 14981 14981 14981 14981 14981 14101 14101 14101 14101 14101 14101 17444 17444 17444 17444 17444 17444 17444 17444 17444 17444 17444 17444 17444 17444 16623 16623 16623 16623 16623 16623 16623 16623 16623 16623 16623 16623 19444 19444 19444 19444 19444 18501 18501 18501 18501 18501 18501 18501 18501 18501 18501 18501 18501 18501 18501 18501 18501 18501 18501 18501 18501 18115 18115 18115 18115 18115 18115 18496 18496 18496 18496 18496 18496 16771 16771 16771 16771 16771 20920 20920 20920 20920 20920 20920 19875 19875 19875 19875 19875 19875 19875 19875 19875 19580 19580 19580 19580 19580 19580 23693 23693 23693 23693 23693 23693 23693 23693 14890 14890 14890 14890 21716 21716 21716 21716 21716 21716 21716 21716 21716 21716 21716 21716 21716 21716 21716 14981 14981 14981 14981 14981 14101 14101 14101 14101 14101 14101 14101 14101 17444 17444 17444 17444 17444 17444 17444 17444 17444 17444 17444 17444 14984 14984 16623 16623 16623 16623 16623 16623 16623 16623 16623 16623 16623 19444 19444 19444 19444 19444 18501 18501 18501 18501 18501 18501 18501 18501 18501 18501 18501 18501 18501 18501 18501 18501 18501 18501 18501 18115 18115 18115 18115 18115 18115 18115 18496 18496 18496 18496 18496 18496 16771 16771 16771 16771 16771 16771 20920 20920 20920 20920 19875 19875 19875 19875 19875 19875 19875 19875 19875 19875 19227 19227 19580 19580 19580 19580 18846 18846 23693 23693 23693 23693 23693 14890 14890 14890 14890 14890 21716 21716 21716 21716 21716 21716 21716 21716 21716 21716 21716 21716 21716 21716 21716 21716 14981 14981 14981 14101 14101 14101 14101 14101 14101 14101 14101 14101 14101 17444 17444 17444 17444 17444 17444 17444 17444 17444 17444 14984 14984 14984 14984 14984 16623 16623 16623 16623 16623 16623 16623 16623 16623 19444 19444 19444 19444 19444 18501 18501 18501 18501 18501 18501 18501 18501 18501 18501 18501 18501 18501 18501 18501 18501 18501 18501 18115 18115 18115 18115 18115 18115 18115 18115 18115 18496 18496 18496 18496 18496 16771 16771 16771 16771 16771 16771 19983 20920 20920 19875 19875 19875 19875 19875 19875 19875 19875 19875 19875 19227 19227 19227 19227 19227 18846 18846 18846 18846 18846 18630 18630 18630 14890 14890 14890 14890 14890 14890 21716 21716 21716 21716 21716 21716 21716 21716 21716 21716 21716 21716 21716 21716 21716 21716 21716 14981 14101 14101 14101 14101 14101 14101 14101 14101 14101 14101 14101 14101 17444 17444 17444 17444 17444 17444 17444 17444 14984 14984 14984 14984 14984 14984 14984 16623 16623 16623 16623 16623 16623 16623 16623 22491 19444 19444 19444 19444 19444 18501 18501 18501 18501 18501 18501 18501 18501 18501 18501 18501 18501 18501 18501 18501 18501 18501 18115 18115 18115 18115 18115 18115 18115 18115 18115 18115 18496 18496 18496 18496 16771 16771 16771 16771 16771 19983 19983 19983 19875 19875 19875 19875 19875 19875 19875 19875 19875 19875 19227 19227 19227 19227 19227 19227 18846 18846 18846 18846 18846 18630 18630 18630 14890 14890 14890 14890 14890 14890 21716 21716 21716 21716 21716 21716 21716 21716 21716 21716 21716 21716 21716 21716 21716 21716 21716 14101 14101 14101 14101 14101 14101 14101 14101 14101 14101 14101 14101 14101 14101 17444 17444 17444 17444 17444 17444 14984 14984 14984 14984 14984 14984 14984 14984 14984 16623 16623 16623 16623 16623 16623 22491 22491 22491 19444 19444 19444 19444 18501 18501 18501 18501 18501 18501 18501 18501 18501 18501 18501 18501 18501 18501 18501 18501 18115 18115 18115 18115 18115 18115 18115 18115 18115 18115 18115 18115 18496 18496 18496 16771 16771 16771 16771 19983 19983 19983 19983 19983 19875 19875 19875 19875 19875 19875 19875 19875 19227 19227 19227 19227 19227 19227 19227 19227 18846 18846 18846 18846 18630 18630 18630 14890 14890 14890 14890 14890 14890 21716 21716 21716 21716 21716 21716 21716 21716 21716 21716 21716 21716 21716 21716 21716 21716 21716 16678 14101 14101 14101 14101 14101 14101 14101 14101 14101 14101 14101 14101 14101 14101 17444 17444 17444 17444 14984 14984 14984 14984 14984 14984 14984 14984 14984 14984 14984 16623 16623 16623 16623 22491 22491 22491 22491 22491 19444 19444 17720 17720 18501 18501 18501 18501 18501 18501 18501 18501 18501 18501 18501 18501 18501 18501 18115 18115 18115 18115 18115 18115 18115 18115 18115 18115 18115 18115 18115 18115 18115 18115 18115 16771 16771 19983 19983 19983 19983 19983 19983 19875 19875 19875 19875 19875 19875 19875 19227 19227 19227 19227 19227 19227 19227 19227 19227 19227 18846 18846 18846 18630 18630 18630 18630 14890 14890 14890 14890 14890 21716 21716 21716 21716 21716 21716 21716 21716 21716 21716 21716 21716 21716 21716 21716 21716 16678 16678 16678 14101 14101 14101 14101 14101 14101 14101 14101 14101 14101 14101 14101 14101 14101 15227 15227 15227 14984 14984 14984 14984 14984 14984 14984 14984 14984 14984 14984 14984 16623 16623 22491 22491 22491 22491 22491 22491 22491 17720 17720 17720 17720 18501 18501 18501 18501 18501 18501 18501 18501 18501 18501 18501 18501 18115 18115 18115 18115 18115 18115 18115 18115 18115 18115 18115 18115 18115 18115 18115 18115 18115 18115 19983 19983 19983 19983 19983 19983 19983 19983 19983 19875 19875 19875 19875 19875 19227 19227 19227 19227 19227 19227 19227 19227 19227 19227 19227 19227 18846 18846 18630 18630 18630 18630 14890 14890 14890 14890 14890 21716 21716 21716 21716 21716 21716 21716 21716 21716 21716 21716 21716 21716 21716 21716 16678 16678 16678 16678 16678 14101 14101 14101 14101 14101 14101 14101 14101 14101 14101 14101 14101 15227 15227 15227 15227 14984 14984 14984 14984 14984 14984 14984 14984 14984 14984 14984 14984 14984 22491 22491 22491 22491 22491 22491 22491 17720 17720 17720 17720 17720 17720 18501 18501 18501 18501 18501 18501 18501 18501 18501 18501 18501 18115 18115 18115 18115 18115 18115 18115 18115 18115 18115 18115 18115 18115 18115 18115 18115 18115 18115 19983 19983 19983 19983 19983 19983 19983 19983 19983 19875 19875 19875 19875 19227 19227 19227 19227 19227 19227 19227 19227 19227 19227 19227 19227 19227 19227 23789 23789 23789 23789 23789 23789 14890 14890 14890 14890 21716 21716 21716 21716 21716 21716 21716 21716 21716 21716 21716 21716 21716 21716 16678 16678 16678 16678 16678 16678 16678 14101 14101 14101 14101 14101 14101 14101 14101 14101 14101 15227 15227 15227 15227 15227 14984 14984 14984 14984 14984 14984 14984 14984 14984 14984 14984 14984 22491 22491 22491 22491 22491 22491 22491 22491 17720 17720 17720 17720 17720 17720 17720 17720 17720 18501 18501 18501 18501 18501 18501 18501 18115 18115 18115 18115 18115 18115 18115 18115 18115 18115 18115 18115 18115 18115 18115 18115 18115 18115 18115 19983 19983 19983 19983 19983 19983 19983 19983 19983 19875 19875 19875 19227 19227 19227 19227 19227 19227 19227 19227 19227 19227 19227 19227 19227 19227 19227 23789 23789 23789 23789 23789 23789 23789 14890 14890 14890 21716 21716 21716 21716 21716 21716 21716 21716 21716 21716 21716 21716 21716 16678 16678 16678 16678 16678 16678 16678 16678 16678 14101 14101 14101 14101 14101 14101 14101 14101 15227 15227 15227 15227 15227 15227 14984 14984 14984 14984 14984 14984 14984 14984 14984 14984 14984 14984 22491 22491 22491 22491 22491 22491 22491 17720 17720 17720 17720 17720 17720 17720 17720 17720 17720 17720 17720 18501 18501 18501 18501 18501 18115 18115 18115 18115 18115 18115 18115 18115 18115 18115 18115 18115 18115 18115 18115 18115 18115 18115 18115 19983 19983 19983 19983 19983 19983 19983 19983 19983 19961 19961 19961 19227 19227 19227 19227 19227 19227 19227 19227 19227 19227 19227 19227 19227 19227 19227 19227 23789 23789 23789 23789 23789 23789 14890 14890 14890 14890 21716 21716 21716 21716 21716 21716 21716 21716 21716 21716 21716 16678 16678 16678 16678 16678 16678 16678 16678 16678 16678 16678 14101 14101 14101 14101 14101 14101 14101 15227 15227 15227 15227 15227 15227 15227 14984 14984 14984 14984 14984 14984 14984 14984 14984 14984 22491 22491 22491 22491 22491 22491 22491 17720 17720 17720 17720 17720 17720 17720 17720 17720 17720 17720 17720 17720 17720 18501 18501 18501 18115 18115 18115 18115 18115 18115 18115 18115 18115 18115 18115 18115 18115 18115 18115 18115 18115 18115 18115 18115 19983 19983 19983 19983 19983 19983 19983 19983 19961 19961 19961 19961 19227 19227 19227 19227 19227 19227 19227 19227 19227 19227 19227 19227 19227 19227 19227 19227 25479 23789 23789 23789 23789 23789 21152 21152 14890 14890 14890 21716 21716 21716 21716 21716 21716 21716 21716 21716 16678 16678 16678 16678 16678 16678 16678 16678 16678 16678 16678 16678 16678 14101 14101 14101 14101 14101 14101 15227 15227 15227 15227 15227 15227 15227 14984 14984 14984 14984 14984 14984 14984 14984 14984 22491 22491 22491 22491 22491 22491 22491 22491 17720 17720 17720 17720 17720 17720 17720 17720 17720 17720 17720 17720 17720 17720 17720 17720 18115 18115 18115 18115 18115 18115 18115 18115 18115 18115 18115 18115 18115 18115 18115 18115 18115 18115 18115 18115 18115 19983 19983 19983 19983 19983 19983 19983 19961 19961 19961 19961 19961 19227 19227 19227 19227 19227 19227 19227 19227 19227 19227 19227 19227 19227 19227 19227 25479 25479 25479 23789 23789 23789 23789 21152 21152 21152 14890 14890 14890 21716 21716 21716 21716 21716 21716 21716 16678 16678 16678 16678 16678 16678 16678 16678 16678 16678 16678 16678 16678 16678 16678 14101 14101 21211 21211 21211 21211 15227 15227 15227 15227 15227 19429 19429 14984 14984 14984 14984 14984 14984 14984 18499 22491 22491 22491 22491 22491 22491 22491 17720 17720 17720 17720 17720 17720 17720 17720 17720 17720 17720 17720 17720 17720 17720 17720 17720 18115 18115 18115 18115 18115 18115 18115 18115 18115 18115 18115 18115 18115 18115 18115 18115 18115 18115 18115 18115 18115 19983 19983 19983 19983 19983 19983 19961 19961 19961 19961 19961 19961 19227 19227 19227 19227 19227 19227 19227 19227 19227 19227 19227 19227 19227 19227 19227 25479 25479 25479 25479 23789 23789 23789 21152 21152 21152 21152 14890 12343 12343 12343 21716 21716 21716 21716 16678 16678 16678 16678 16678 16678 16678 16678 16678 16678 16678 16678 16678 16678 16678 16678 14101 21211 21211 21211 21211 21211 21211 15227 15227 15227 19429 19429 19429 19429 19429 18499 18499 18499 18499 18499 18499 18499 22491 22491 22491 22491 22491 17720 17720 17720 17720 17720 17720 17720 17720 17720 17720 17720 17720 17720 17720 17720 17720 17720 17720 17720 18115 18115 18115 18115 18115 18115 18115 18115 18115 18115 18115 18115 18115 18115 18115 18115 18115 18115 18115 17557 17557 19983 19983 19983 19983 19961 19961 19961 19961 19961 19961 19961 19961 19227 19227 19227 19227 19227 19227 19227 19227 19227 19227 19227 19227 19227 25479 25479 25479 25479 25479 25479 23515 23515 23515 21152 21152 21152 12343 12343 12343 12343 12343 21716 21716 16678 16678 16678 16678 16678 16678 16678 16678 16678 16678 16678 16678 16678 16678 16678 22118 16678 21211 21211 21211 21211 21211 21211 21211 21211 21211 21211 19429 19429 19429 19429 19429 18499 18499 18499 18499 18499 18499 18499 18499 22491 22491 22491 17720 17720 17720 17720 17720 17720 17720 17720 17720 17720 17720 17720 17720 17720 17720 17720 17720 17720 17720 17720 17720 18115 18115 18115 18115 18115 18115 18115 18115 18115 18115 18115 18115 18115 18115 18115 18115 18115 17557 17557 17557 17557 19983 19983 19961 19961 19961 19961 19961 19961 19961 19961 19961 19227 19227 19227 19227 19227 19227 19227 19227 19227 19227 19227 19227 25479 25479 25479 25479 25479 25479 23515 23515 23515 23515 23515 21152 12343 12343 12343 12343 12343 12343 12343 16678 16678 16678 16678 16678 16678 16678 16678 16678 16678 16678 16678 16678 16678 10000 10000 10000 10000 21211 21211 21211 21211 21211 21211 21211 21211 21211 21211 21211 19429 19429 19429 18499 18499 18499 18499 18499 18499 18499 18499 18499 18499 22491 17720 17720 17720 17720 17720 17720 17720 17720 17720 17720 17720 17720 17720 17720 17720 17720 17720 17720 17720 17720 17720 17720 17720 17720 18115 18115 18115 18115 18115 18115 18115 18115 18115 18115 18115 18115 18115 18115 17557 17557 17557 17557 17557 17557 19961 19961 19961 19961 19961 19961 19961 19961 19961 19961 19227 19227 19227 19227 19227 19227 19227 19227 19227 19227 19227 19227 25479 25479 25479 25479 25479 25479 23515 23515 23515 23515 23515 12343 12343 12343 12343 12343 12343 12343 12343 12343 16678 16678 16678 16678 16678 16678 16678 16678 16678 16678 16678 16678 10000 10000 10000 10000 10000 10000 21211 21211 21211 21211 21211 21211 21211 21211 21211 10000 10000 10000 10000 10000 10000 18499 18499 18499 18499 18499 18499 18499 18499 21524 17720 17720 17720 17720 17720 17720 17720 17720 17720 17720 17720 17720 17720 17720 17720 17720 17720 17720 17720 17720 17720 17720 17720 17720 22587 22587 22587 18115 18115 18115 18115 18115 18115 18115 18115 18115 18115 17557 17557 17557 17557 17557 17557 17557 19961 19961 19961 19961 19961 19961 19961 19961 19961 19961 19227 19227 19227 19227 19227 19227 19227 19227 19227 19227 19227 19227 25479 25479 25479 25479 25479 25479 23515 23515 23515 23515 12343 12343 12343 12343 12343 12343 12343 12343 12343 12343 12343 16678 16678 16678 16678 16678 16678 16678 16678 16678 16678 10000 10000 10000 10000 10000 10000 10000 10000 21211 21211 21211 21211 21211 21211 21211 10000 10000 10000 10000 10000 10000 10000 10000 10000 10000 18499 18499 18499 18499 21524 21524 21524 17720 17720 17720 17720 17720 17720 17720 17720 17720 17720 17720 17720 17720 17720 17720 17720 17720 17720 17720 17720 17720 17720 17720 22587 22587 22587 22587 19251 18115 18115 18115 18115 18115 18115 19251 19251 19251 17557 17557 17557 17557 17557 14191 19961 19961 19961 19961 19961 19961 19961 19961 0 0 0 0 0 0 0 0 0 0 0 0 0 0 0 0 0 0 0 0 0 0 0 0 12343 12343 12343 12343 12343 12343 12343 12343 12343 12343 12343 12343 16678 16678 16678 16678 16678 16678 16678 16678 10000 10000 10000 10000 10000 10000 10000 10000 10000 10000 21211 21211 21211 21211 21211 10000 10000 10000 10000 10000 10000 10000 10000 10000 10000 10000 10000 18499 18499 21524 21524 21524 21524 21524 17720 17720 17720 17720 17720 17720 17720 17720 17720 17720 17720 17720 17720 17720 17720 17720 17720 17720 17720 17720 17720 14921 21686 19251 19251 19251 19251 19251 19251 19251 19251 19251 19251 19251 19251 19251 19251 19251 17557 14191 14191 14191 14191 19961 19961 19961 19961 19961 19961 0 0 0 0 0 0 0 0 0 0 0 0 0 0 0 0 0 0 0 0 0 0 0 0 0 0 12343 12343 12343 12343 12343 12343 12343 12343 12343 12343 12343 12343 16678 16678 16678 16678 16678 16678 10000 10000 10000 10000 10000 10000 10000 10000 10000 10000 10000 10000 21211 21211 21211 10000 10000 10000 10000 10000 10000 10000 10000 10000 10000 10000 10000 10000 10000 10000 21524 21524 21524 21524 21524 20733 17720 17720 17720 17720 17720 17720 17720 17720 17720 17720 17720 17720 17720 17720 17720 17720 17720 17720 17720 17720 14921 14921 19251 19251 19251 19251 19251 19251 19251 19251 19251 19251 19251 19251 19251 19251 19251 19251 14191 14191 14191 14191 19961 19961 19961 19961 0 0 0 0 0 0 0 0 0 0 0 0 0 0 0 0 0 0 0 0 0 0 0 0 0 0 0 0 0 12343 12343 12343 12343 12343 12343 12343 12343 12343 12343 12343 12343 16678 16678 16678 16678 10000 10000 10000 10000 10000 10000 10000 10000 10000 10000 10000 10000 10000 10000 10000 10000 10000 10000 10000 10000 10000 10000 10000 10000 10000 10000 10000 10000 10000 10000 10000 10000 21524 21524 21524 20733 20733 20733 17720 17720 17720 17720 17720 17720 17720 17720 17720 17720 17720 17720 17720 17720 17720 17720 14921 14921 14921 14921 14921 19251 19251 19251 19251 19251 19251 19251 19251 19251 19251 19251 19251 19251 19251 19251 19251 19251 14191 14191 14191 19961 19961 0 0 0 0 0 0 0 0 0 0 0 0 0 0 0 0 0 0 0 0 0 0 0 0 0 0 0 0 0 0 0 0 12343 12343 12343 12343 12343 12343 12343 12343 12343 12343 12343 12343 16678 16678 10000 10000 10000 10000 10000 10000 10000 10000 10000 10000 10000 10000 10000 10000 10000 10000 10000 10000 10000 10000 10000 10000 10000 10000 10000 10000 10000 10000 10000 10000 10000 10000 10000 10000 21524 20733 20733 20733 20733 20733 17720 17720 17720 17720 17720 17720 17720 17720 17720 17720 17720 17720 17720 14921 14921 14921 14921 14921 14921 19251 19251 19251 19251 19251 19251 19251 19251 19251 19251 19251 19251 19251 19251 19251 19251 19251 19251 19251 17645 17645 17645 0 0 0 0 0 0 0 0 0 0 0 0 0 0 0 0 0 0 0 0 0 0 0 0 0 0 0 0 0 0 0 0 0 0 12343 12343 12343 12343 12343 12343 12343 12343 12343 12343 12343 10000 10000 10000 10000 10000 10000 10000 10000 10000 10000 10000 10000 10000 10000 10000 10000 10000 10000 10000 10000 10000 10000 10000 10000 10000 10000 10000 10000 10000 10000 10000 10000 10000 10000 10000 10000 10000 20733 20733 20733 20733 20733 20733 20733 20733 17720 17720 17720 17720 17720 17720 17720 17720 17720 14921 14921 14921 14921 14921 14921 14921 19251 19251 19251 19251 19251 19251 19251 19251 19251 19251 19251 19251 19251 19251 19251 19251 19251 19251 19251 17645 17645 0 0 0 0 0 0 0 0 0 0 0 0 0 0 0 0 0 0 0 0 0 0 0 0 0 0 0 0 0 0 0 0 0 0 0 0 12343 12343 12343 12343 12343 12343 12343 12343 12343 19167 10000 10000 10000 10000 10000 10000 10000 10000 10000 10000 10000 10000 10000 10000 10000 10000 10000 10000 10000 10000 10000 10000 10000 10000 10000 10000 10000 10000 10000 10000 10000 10000 10000 10000 10000 10000 10000 20733 20733 20733 20733 20733 20733 20733 20733 20733 17720 17720 17720 17720 17720 17720 17720 14921 14921 14921 14921 14921 14921 14921 14921 19251 19251 19251 19251 19251 19251 19251 19251 19251 19251 19251 19251 19251 19251 19251 19251 19251 19251 17645 17645 0 0 0 0 0 0 0 0 0 0 0 0 0 0 0 0 0 0 0 0 0 0 0 0 0 0 0 0 0 0 0 0 0 0 0 0 0 0 12343 12343 19167 19167 19167 19167 19167 19167 19167 19167 10000 10000 10000 10000 10000 10000 10000 10000 10000 10000 10000 10000 10000 10000 10000 10000 10000 10000 10000 10000 10000 10000 10000 10000 10000 10000 10000 10000 10000 10000 10000 10000 10000 10000 10000 10000 20733 20733 20733 20733 20733 20733 20733 20733 20733 20733 20733 17720 17720 17720 21991 21991 21991 14921 14921 14921 14921 14921 14921 14921 19251 19251 19251 19251 19251 19251 19251 19251 19251 19251 19251 19251 19251 19251 19251 19251 19251 19251 17645 17645 0 0 0 0 0 0 0 0 0 0 0 0 0 0 0 0 0 0 0 0 0 0 0 0 0 0 0 0 0 0 0 0 0 0 0 0 0 0 0 19167 19167 19167 19167 19167 19167 19167 19167 19167 10000 10000 10000 10000 10000 10000 10000 10000 10000 10000 10000 10000 10000 10000 10000 10000 10000 10000 10000 10000 10000 10000 10000 10000 10000 10000 10000 10000 10000 10000 10000 10000 10000 10000 10000 10000 20733 20733 20733 20733 20733 20733 20733 20733 20733 20733 20733 20733 17720 21991 21991 21991 21991 21991 14921 14921 14921 14921 14921 14921 19251 19251 19251 19251 19251 19251 19251 19251 19251 19251 19251 19251 19251 19251 19251 19251 19251 19251 17645 17645 0 0 0 0 0 0 0 0 0 0 0 0 0 0 0 0 0 0 0 0 0 0 0 0 0 0 0 0 0 0 0 0 0 0 0 0 0 0 0 19167 19167 19167 19167 19167 19167 19167 19167 19167 19167 10000 10000 10000 10000 10000 10000 10000 10000 10000 10000 10000 10000 10000 10000 10000 10000 10000 10000 10000 10000 10000 10000 10000 10000 10000 10000 10000 10000 10000 10000 10000 10000 10000 10000 10000 20733 20733 20733 20733 20733 20733 20733 20733 20733 20733 20733 20733 21991 21991 21991 21991 21991 21991 14921 14921 14921 14921 14921 14921 14921 19251 19251 19251 19251 19251 19251 19251 19251 19251 19251 19251 19251 19251 19251 19251 19251 17645 17645 17645 0 0 0 0 0 0 0 0 0 0 0 0 0 0 0 0 0 0 0 0 0 0 0 0 0 0 0 0 0 0 0 0 0 0 0 0 0 0 0 19167 19167 19167 19167 19167 19167 19167 19167 19167 19167 10000 10000 10000 10000 10000 10000 10000 10000 10000 10000 10000 10000 10000 10000 10000 10000 10000 10000 10000 10000 10000 10000 10000 10000 10000 10000 10000 10000 10000 10000 10000 10000 10000 10000 10000 10000 20733 20733 20733 20733 20733 20733 20733 20733 20733 20733 21991 21991 21991 21991 21991 21991 21991 14921 14921 14921 14921 14921 14921 11393 11393 19251 19251 19251 19251 19251 19251 19251 19251 19251 19251 19251 19251 19251 19251 17645 17645 17645 17645 0 0 0 0 0 0 0 0 0 0 0 0 0 0 0 0 0 0 0 0 0 0 0 0 0 0 0 0 0 0 0 0 0 0 0 0 0 0 0 19167 19167 19167 19167 19167 19167 19167 19167 19167 10000 10000 10000 10000 10000 10000 10000 10000 10000 10000 10000 10000 10000 10000 10000 10000 10000 10000 10000 10000 10000 10000 10000 10000 10000 10000 10000 10000 10000 10000 10000 10000 10000 10000 10000 10000 10000 17526 20733 20733 20733 20733 20733 20733 20733 20733 20733 21991 21991 21991 21991 21991 21991 21991 14921 14921 14921 14921 14921 11393 11393 11393 11393 19251 19251 19251 19251 19251 19251 19251 19251 19251 19251 19251 19251 17645 17645 17645 17645 17645 0 0 0 0 0 0 0 0 0 0 0 0 0 0 0 0 0 0 0 0 0 0 0 0 0 0 0 0 0 0 0 0 0 0 0 0 0 0 0 19167 19167 19167 19167 19167 19167 19167 19167 19167 10000 10000 10000 10000 10000 10000 10000 10000 10000 10000 10000 10000 10000 10000 10000 10000 10000 10000 10000 10000 10000 10000 10000 10000 10000 10000 10000 10000 10000 10000 10000 10000 10000 10000 10000 10000 17526 17526 17526 20733 20733 20733 20733 20733 20733 20733 20733 21991 21991 21991 21991 21991 21991 23239 14921 14921 14921 14921 14921 11393 11393 11393 11393 11393 19251 19251 19251 19251 19251 19251 19251 19251 19251 19251 17645 17645 17645 17645 17645 17645 24606 0 0 0 0 0 0 0 0 0 0 0 0 0 0 0 0 0 0 0 0 0 0 0 0 0 0 0 0 0 0 0 0 0 0 0 0 0 0 19167 19167 19167 19167 19167 19167 19167 19167 19167 10000 10000 10000 10000 10000 10000 10000 10000 10000 10000 10000 10000 10000 10000 10000 10000 10000 10000 10000 10000 10000 10000 10000 10000 10000 10000 10000 10000 10000 10000 10000 10000 10000 10000 10000 10000 17526 17526 17526 17526 20733 20733 20733 20733 20733 20733 20733 21991 21991 21991 21991 23239 23239 23239 23239 14921 14921 14921 11393 11393 11393 11393 11393 11393 11393 19251 19251 19251 19251 19251 19251 19251 19251 16680 17645 17645 17645 17645 17645 24606 24606 24606 0 0 0 0 0 0 0 0 0 0 0 0 0 0 0 0 0 0 0 0 0 0 0 0 0 0 0 0 0 0 0 0 0 0 0 0 0 19167 19167 19167 19167 19167 19167 19167 19167 19167 10000 10000 10000 10000 10000 10000 10000 10000 10000 10000 10000 10000 10000 10000 10000 10000 10000 10000 10000 10000 10000 10000 10000 10000 10000 10000 10000 10000 10000 10000 10000 10000 10000 10000 10000 10000 17526 17526 17526 17526 17526 20733 20733 20733 20733 20733 20103 20103 21991 21991 23239 23239 23239 23239 23239 23239 14921 11393 11393 11393 11393 11393 11393 11393 11393 11393 16680 16680 16680 16680 16680 16680 16680 16680 16680 17645 17645 17645 24606 24606 24606 24606 24606 0 0 0 0 0 0 0 0 0 0 0 0 0 0 0 0 0 0 0 0 0 0 0 0 0 0 0 0 0 0 0 0 0 0 0 0 19167 19167 19167 19167 19167 19167 19167 19167 10000 10000 10000 10000 10000 10000 10000 10000 10000 10000 10000 10000 10000 10000 10000 10000 10000 10000 10000 10000 10000 10000 10000 10000 10000 10000 10000 10000 10000 10000 10000 10000 10000 10000 10000 10000 10000 17526 17526 17526 17526 17526 17526 20733 20733 20733 20103 20103 20103 20103 23239 23239 23239 23239 23239 23239 23239 23239 11393 11393 11393 11393 11393 11393 11393 11393 11393 16680 16680 16680 16680 16680 16680 16680 16680 21718 21718 21718 24606 24606 24606 24606 24606 24606 0 0 0 0 0 0 0 0 0 0 0 0 0 0 0 0 0 0 0 0 0 0 0 0 0 0 0 0 0 0 0 0 0 0 0 0 19167 19167 19167 19167 19167 19167 19167 19167 10000 10000 10000 10000 10000 10000 10000 10000 10000 10000 10000 10000 10000 10000 10000 10000 10000 10000 10000 10000 10000 10000 10000 10000 10000 10000 10000 10000 10000 10000 10000 10000 10000 10000 10000 10000 10000 17526 17526 17526 17526 17526 17526 20103 20103 20103 20103 20103 20103 20103 23239 23239 23239 23239 23239 23239 23239 23239 23239 11393 11393 11393 11393 11393 11393 11393 11393 16680 16680 16680 16680 16680 16680 16680 21718 21718 21718 21718 21718 24606 24606 24606 24606 0 0 0 0 0 0 0 0 0 0 0 0 0 0 0 0 0 0 0 0 0 0 0 0 0 0 0 0 0 0 0 0 0 0 0 0 0 19167 19167 19167 19167 19167 19167 19167 19167 10000 10000 10000 10000 10000 10000 10000 10000 10000 10000 10000 10000 10000 10000 10000 10000 10000 10000 10000 10000 10000 10000 10000 10000 10000 10000 10000 10000 10000 10000 10000 10000 10000 10000 10000 10000 10000 17526 17526 17526 17526 17526 20103 20103 20103 20103 20103 20103 20103 20103 23239 23239 23239 23239 23239 23239 23239 23239 23239 11393 11393 11393 11393 11393 11393 11393 11393 21718 21718 21718 21718 21718 21718 21718 21718 21718 21718 21718 21718 21718 24606 24606 0 0 0 0 0 0 0 0 0 0 0 0 0 0 0 0 0 0 0 0 0 0 0 0 0 0 0 0 0 0 0 0 0 0 0 0 0 0 19167 19167 19167 19167 19167 19167 19167 19167 10000 10000 10000 10000 10000 10000 10000 10000 10000 10000 10000 10000 10000 10000 10000 10000 10000 10000 10000 10000 10000 10000 10000 10000 10000 10000 10000 10000 10000 10000 10000 10000 10000 10000 10000 10000 10000 10000 17526 17526 17526 20103 20103 20103 20103 20103 20103 20103 20103 20103 23239 23239 23239 23239 23239 23239 23239 23239 23239 23239 18301 18301 11393 11393 11393 11393 13257 21718 21718 21718 21718 21718 21718 21718 21718 21718 21718 21718 21718 21718 21718 0 0 0 0 0 0 0 0 0 0 0 0 0 0 0 0 0 0 0 0 0 0 0 0 0 0 0 0 0 0 0 0 0 0 0 0 0 0 0 19167 19167 19167 19167 19167 19167 19167 10000 10000 10000 10000 10000 10000 10000 10000 10000 10000 10000 10000 10000 10000 10000 10000 10000 10000 10000 10000 10000 10000 10000 10000 10000 10000 10000 10000 10000 10000 10000 10000 10000 10000 10000 10000 10000 10000 10000 10000 17526 17526 20103 20103 20103 20103 20103 20103 20103 20103 23239 23239 23239 23239 23239 23239 23239 23239 23239 23239 18301 18301 18301 18301 11393 11393 13257 13257 13257 21718 21718 21718 21718 21718 21718 21718 21718 21718 21718 21718 21718 21718 0 0 0 0 0 0 0 0 0 0 0 0 0 0 0 0 0 0 0 0 0 0 0 0 0 0 0 0 0 0 0 0 0 0 0 0 0 0 0 19167 19167 19167 19167 19167 19167 19167 10000 10000 10000 10000 10000 10000 10000 10000 10000 10000 10000 10000 10000 10000 10000 10000 10000 10000 10000 10000 10000 10000 10000 10000 10000 10000 10000 10000 10000 10000 10000 10000 10000 10000 10000 10000 10000 10000 10000 10000 10000 10000 20103 20103 20103 20103 20103 20103 20103 23239 23239 23239 23239 23239 23239 23239 23239 23239 23239 18301 18301 18301 18301 18301 18301 13257 13257 13257 13257 13257 21718 21718 21718 21718 21718 21718 21718 21718 21718 21718 21718 21718 0 0 0 0 0 0 0 0 0 0 0 0 0 0 0 0 0 0 0 0 0 0 0 0 0 0 0 0 0 0 0 0 0 0 0 0 0 0 0 16974 16974 16974 16974 16974 16974 16974 10000 10000 10000 10000 10000 10000 10000 10000 10000 10000 10000 10000 10000 10000 10000 10000 10000 10000 10000 10000 10000 10000 10000 10000 10000 10000 10000 10000 10000 10000 10000 10000 10000 10000 10000 10000 10000 10000 10000 10000 10000 10000 10000 20103 20103 20103 20103 20103 23239 23239 23239 23239 23239 23239 23239 23239 23239 23239 18301 18301 18301 18301 18301 18301 18301 13257 13257 13257 13257 13257 13257 21718 21718 21718 21718 21718 21718 21718 21718 21718 21718 21718 0 0 0 0 0 0 0 0 0 0 0 0 0 0 0 0 0 0 0 0 0 0 0 0 0 0 0 0 0 0 0 0 0 0 0 0 0 0 0 16974 16974 16974 16974 16974 16974 16974 16974 10000 10000 10000 10000 10000 10000 10000 10000 10000 10000 10000 10000 10000 10000 10000 10000 10000 10000 10000 10000 10000 10000 10000 10000 10000 10000 10000 10000 10000 10000 10