<?xml version="1.0"?>
<VTKFile type="ImageData" version="0.1" byte_order="LittleEndian">
<ImageData WholeExtent="0 128 0 128 0 1" Origin="0 0 0" Spacing="1 1 1">
<Piece Extent="0 128 0 128 0 1">
<PointData>
</PointData>
<CellData Scalars="Spin">
<DataArray type="Int32" Name="Spin" format="ascii" RangeMin="0" RangeMax="30443">
22249 19130 12389 9569 701 22981 6758 20345 3904 2202 24153 9115 2521 23186 27851 29774 7759 20122 26713 17566 27771 30035 805 4871 9062 10380 1967 14198 4733 6229 2033 937 20255 18802 8928 13501 9437 19197 14243 24461 25107 1702 584 2055 16957 19658 20971 26369 9728 26873 17282 26392 29505 14405 16003 27872 18835 7297 14525 1129 19804 20054 4827 19832 10780 11396 13565 19890 27656 21414 3763 19967 12001 28296 4980 176 17483 6685 9252 12197 1662 20659 6729 15309 5986 1996 22850 17444 15549 8198 1932 12968 27507 23861 1994 27012 15150 14906 8305 15298 23285 1588 30268 12959 24922 4576 25865 16721 17892 22412 26510 21814 22505 20584 17676 27775 6764 4502 22638 4855 9269 27494 12273 29474 1717 3917 10151 28105 13916 5993 19046 7739 5004 28638 24364 21273 6962 19327 22737 29110 3337 8772 9045 19979 720 20649 25215 2895 22073 25417 7702 8852 12842 17962 22546 28326 30195 12533 3575 24094 21709 18155 29439 13923 26623 6639 22842 6292 11471 28768 1925 5802 17875 11598 52 29336 26758 19748 6274 12025 10728 3042 28860 468 28796 10848 9869 7772 16199 9161 27415 15684 12362 12597 8286 9274 24883 18031 26350 2267 15325 19887 25354 1143 4508 20890 21257 2089 19528 6633 11645 663 19702 2271 28681 9899 7441 4270 12759 27264 27512 3288 7116 8204 23836 22382 840 691 3852 4526 13714 17482 5228 21335 29883 6196 11745 6791 15907 3594 30277 7496 6111 8554 17317 10860 26867 22041 6163 28666 10235 3946 21128 8801 15244 27847 14138 28857 10219 28498 30302 5457 16356 16339 15173 11143 29345 11076 14189 5900 4230 10501 22214 22950 11369 29549 9001 22815 18419 17315 19921 23917 4505 9255 21336 7060 1267 4963 2393 8499 3877 20407 22071 20123 26206 2391 25192 10176 8533 21567 11965 20591 22106 6420 21980 25920 30405 3933 18529 23725 3994 15189 27866 9451 2391 19548 8568 27488 26005 17022 10902 29796 19898 13469 23405 27526 14665 28120 12653 14351 22779 12392 27768 24922 30063 26483 5108 13019 27426 21666 29446 12604 29414 14819 14737 1977 22942 26393 30090 20068 15781 3535 10287 11684 23893 3746 23046 14471 16623 26786 25785 9350 11324 11499 6625 5885 9005 4707 10005 7136 30277 2518 19997 20049 21919 15655 30409 2332 7535 19319 24189 7680 19622 9107 16990 9868 15359 13529 17188 20364 12774 17535 18188 5964 6372 5366 14680 19403 3882 7402 3979 7369 15172 22579 6764 13148 24354 29412 24032 13305 5391 9259 30296 27862 9961 13381 26802 10644 16152 22325 4856 6743 25620 28318 20711 22389 28603 21770 13755 29509 23693 11100 24384 18342 24535 17943 2694 18359 18567 5926 22333 24495 25799 8145 3640 23542 10854 7426 8121 16031 14090 22482 26230 20470 8630 5854 2520 29755 25133 20225 26574 29269 10109 15267 648 30234 1889 1917 26527 11285 21153 12848 9230 15575 2602 22744 380 5802 29180 10911 5745 22848 5165 933 22482 21527 26951 22177 11786 1754 15635 23357 11734 27110 17731 3241 11901 1757 23520 2643 29187 29974 13707 2712 12782 15312 13526 18501 9867 29934 13415 28183 19910 7499 29553 17058 15346 23498 12739 5785 1402 25640 15073 25849 3230 11201 11535 20593 18806 606 20594 12929 19606 1871 10269 20827 13131 27176 10763 18758 15511 10553 7077 19637 19875 15935 18606 16343 30139 3440 14313 2274 484 28502 26021 18426 17296 24866 9963 18709 21462 13818 18630 18790 17895 15481 638 6313 11030 16968 19794 16216 1110 14213 14635 30014 12796 10239 28025 23970 28223 12398 3641 16656 504 15156 7624 21776 26788 12100 13131 19759 23394 5730 24932 28114 2641 27287 8491 22163 11707 4565 14143 25304 1156 16189 18705 17791 21333 11960 19327 13627 4169 25885 28292 26812 27937 10174 2776 8545 9929 24643 30072 15584 16912 23345 23401 11913 5968 4591 6430 19057 5331 18772 23363 8716 28177 11580 16474 17313 29115 26815 10336 20081 28131 7944 10425 16945 14958 13694 10325 6894 6431 8658 26820 18496 3834 23317 17321 9914 388 8384 27733 15860 15660 9584 17076 7864 25566 21048 30227 3090 21617 25876 21975 13643 29817 8689 26109 16180 8899 24057 8110 11494 7004 29951 6164 7937 8605 12992 6437 12528 16259 24989 28999 17845 4959 6638 11804 6199 26382 20314 11099 18148 16845 2242 15194 25537 11773 15479 19578 28721 8898 330 6494 19725 5534 5566 292 29152 11870 25552 1521 14056 21485 1338 29932 11752 11848 17254 1776 23240 8826 10444 21091 8530 10512 12513 24904 26616 3508 23373 5461 23386 16785 25491 181 30123 15460 24097 52 22163 23479 17992 19444 27626 20866 27528 21355 3869 23962 9791 12930 4766 5400 20408 16432 11821 5171 14072 14606 25734 29697 19691 15745 7875 18755 8323 26685 15647 16090 6691 22103 1215 18768 16771 4193 11568 16714 19504 14039 17572 2481 27595 13584 14202 9098 25232 20874 23037 9887 24900 20789 8168 10715 10284 19580 4642 12357 27637 28431 18846 5526 4001 14980 13438 5025 13435 4030 26256 6665 8678 26744 4202 21348 12594 11154 26063 9499 8282 378 20191 19457 10020 793 3352 16860 21296 20509 1188 30016 11478 19944 20765 28970 47 24794 17936 17872 16204 14326 12528 190 4498 29202 12859 10359 4945 7997 20599 1196 8307 15604 16129 8909 2259 29245 6947 6238 24140 1588 22944 24128 5460 21968 1497 26883 1319 26988 9348 27063 3108 28300 8011 9529 19550 18405 2966 25552 1539 24570 28278 5008 9508 25636 24045 28241 10309 15596 13028 27619 18735 13095 30430 17816 12115 17050 10841 19478 18940 19960 21449 16492 19060 13615 14613 18432 21727 27275 8973 27073 21237 9021 28024 27409 20893 16018 20763 647 3626 10017 21306 27149 20495 26155 12260 9378 5401 17395 26460 7942 13855 24098 26178 1405 7212 19537 25398 22796 28814 9151 11344 10631 11586 504 19347 22293 9920 12861 2678 17859 2979 22780 2277 153 7656 30369 14736 12017 23629 11463 6687 20177 6190 817 22198 14620 12985 2911 16770 30069 11537 8955 20507 11118 3492 18504 27267 19068 6967 23504 1984 5679 8630 17052 23520 25064 18807 10158 20213 13849 10235 17679 2738 6799 11396 22582 1536 5011 2547 10330 18587 3900 12029 3838 7495 20274 20087 28352 21054 23293 23141 6162 20988 15428 6511 3614 29328 3992 9632 22553 1256 5930 1570 18168 4949 10458 15279 11431 1401 28852 20730 7895 28126 14620 16694 26554 27435 3533 18131 24462 22261 9197 12655 30410 16350 7504 4015 13390 17184 5111 14339 8777 13486 16301 28745 25305 3206 13826 6372 21319 20179 22502 24304 14794 4081 4619 16860 11209 13351 3982 276 5272 26290 448 22528 22495 20731 8610 25952 20882 15840 13378 11112 25701 14049 4796 11793 4169 320 15372 30430 14101 16125 21115 4418 9438 808 2604 19916 20975 29019 5301 19367 9756 23071 10951 29107 24253 25039 8375 6708 379 509 7980 8677 10490 19346 2266 25153 14094 8773 22283 9930 18918 23405 12211 19998 22168 18018 30091 11142 15272 15498 16864 19297 21419 13738 27945 7687 16567 19170 17617 21263 12482 27509 29203 11736 20858 29648 18246 24601 15110 914 23789 17215 3133 4907 16184 16544 7607 14388 26402 13842 1506 24855 11643 19061 29880 5606 2354 27957 16313 28883 5869 29450 18962 24737 13589 8397 23346 22551 22055 14500 1477 17080 20505 23360 19507 6451 15305 10509 9602 14590 30323 6423 2159 14890 6832 27044 19576 1634 20350 13071 13989 12833 28743 20271 3172 2902 8540 6250 23467 14273 2184 22480 18734 23669 13271 20792 10554 5665 19143 19582 22486 22539 21485 7277 14363 11945 1498 3311 1656 24071 17350 24949 11852 27857 17689 20572 21195 10942 8895 23898 21471 29962 782 14002 18595 30030 28484 16112 11691 8150 7078 8051 20996 17996 19508 22247 9550 12283 23527 1162 22814 6181 7593 3744 15225 19499 16143 10297 21735 15125 8694 220 6859 15132 24743 7895 17387 16065 10063 27679 5468 14782 16077 22633 29966 24599 7388 550 8829 23832 2709 11536 13837 25997 12510 17172 30248 12151 5851 22740 3934 25613 1986 25865 27273 22218 11333 957 26162 29451 16187 26360 23229 20909 7904 6965 10971 10839 16780 17496 14112 28724 2297 21802 8856 24179 26433 4978 19220 21716 9875 19612 17205 19453 16073 25765 28904 4113 2649 12470 2484 5361 3002 2374 5767 10796 1203 28548 8759 21640 21567 7992 9037 14218 11923 15345 3970 24708 24478 2675 21611 9698 508 4496 16112 15685 17724 7036 21698 17477 25721 22491 25480 8557 21662 9180 988 20365 22951 24381 9867 29033 18033 7863 22174 25666 5559 23684 16954 24930 15711 1860 9913 10281 20379 24879 3191 19407 7972 19102 18115 15448 2975 25025 17639 930 6828 9623 973 8763 19513 9707 16088 11742 21223 18070 15169 20342 26014 3208 18076 17857 24034 27647 29379 11345 328 7776 28289 10835 21233 12368 19227 22436 15240 28023 12079 20982 18544 28194 8683 8914 4563 8757 8199 24978 5908 14910 11828 20707 22684 6222 972 5913 1616 23677 26697 5431 7978 4699 7230 17809 6039 8614 9621 24455 3896 16039 19025 6973 19297 24040 5961 14822 29575 23542 23490 367 3037 25619 15227 20197 4289 27531 13230 24217 876 17009 9788 21320 12909 14984 11489 29914 1170 21862 23014 7436 3807 28672 24100 24245 20039 29354 24110 13550 9418 7600 24256 17871 28231 11380 4278 11460 5775 7698 16400 13488 28283 6090 23945 4863 21606 1977 2648 11616 4145 29238 7377 19814 1149 17013 19577 1672 12094 21916 14347 12316 13408 16146 9272 15842 11685 8902 10307 18308 16433 10288 18053 27530 28060 6521 15196 26743 9405 19739 26759 22427 29587 8071 4009 6715 15812 13582 30325 3470 6926 21001 8662 27081 11634 6814 17309 24356 1967 8957 18839 11477 3094 713 29701 12352 23706 16178 10535 13740 978 15037 9095 11202 1798 9756 18641 2129 24146 10980 27823 20977 13596 9073 6263 24616 18417 18338 9770 21676 20769 8416 25649 27851 13819 6019 6037 22192 21617 19391 27311 4178 28376 23040 10296 18613 7692 13991 10634 11021 7595 10921 14945 11810 19952 19886 12532 15734 21218 24626 27132 22073 12004 8011 16628 21542 26423 26186 16684 14092 20264 5922 29657 21388 40 10342 13513 13874 23655 24838 29103 26906 14718 28006 3368 10842 674 23188 1748 8542 15229 11382 681 11309 6567 234 29193 7125 4019 22144 288 16721 5101 12000 27125 3980 19905 15173 27916 19767 15850 28682 940 291 27097 10863 28418 6256 23164 29927 20505 4176 16421 25878 30373 4040 20141 24123 12420 3624 22554 7387 27286 29651 2675 2621 14675 7435 4707 25873 15991 5778 17568 2288 10617 18211 13488 12391 27368 2602 1355 25196 8255 30261 25662 7753 11030 21224 1700 24496 29107 12475 20480 3994 20893 19429 23379 3930 4420 28551 6462 11834 17515 24999 14236 976 12215 9611 8429 17505 24113 14378 18673 15363 10529 27629 6108 17303 13603 9541 4126 12903 20142 16126 12073 21776 15073 2567 20313 28245 26807 2191 24482 12491 8155 17239 8022 4611 26151 28757 691 30147 18409 26318 16330 16627 20757 10936 24913 16881 5607 15476 17040 13890 3857 3956 830 9693 21663 2366 1198 10691 18755 20434 24873 764 7160 17767 23969 22215 1160 13713 7972 18977 27257 11031 25479 27230 1880 18049 15906 14035 17548 26676 28902 2317 26052 29233 295 104 27424 16147 23244 25058 13031 3843 6730 14289 18345 27260 27589 24405 24297 6224 13299 29872 4195 5463 4596 17621 6084 22625 3036 19823 28152 10627 28530 5616 11487 1982 9124 27518 5546 22885 9403 14867 24666 25215 24725 12646 11171 27985 17444 10296 15441 11714 21406 9491 7065 18012 2932 13362 14495 25660 21412 431 16869 26556 22836 17389 28191 4597 15582 30116 16509 18970 23080 18343 1809 27866 26805 23944 14702 27441 3506 10754 2691 29587 21899 6998 11347 30177 971 1419 6077 27308 16807 21435 17472 30008 16318 10050 15924 21115 21882 19994 18760 21486 10462 17843 12989 8594 18059 29581 8057 18702 28022 14853 18152 6345 21397 14928 11834 8075 20722 14548 2199 11423 21198 2146 2392 14998 21152 6512 13890 19019 14191 30002 10539 12317 9132 21011 16184 21392 17774 25435 14008 16666 5756 567 16678 7267 18261 19013 3331 25978 5412 22262 13362 10286 12362 4740 950 26759 29041 30130 13273 20813 9874 14447 148 26919 30410 21457 11050 14278 7484 958 19171 2090 26554 2659 18103 2287 17375 17868 10499 27568 27365 14166 14124 26194 1774 10353 1533 27237 2977 5672 3799 28628 7257 30381 25709 16297 24932 18625 13912 4974 13535 27227 7242 9545 28213 18610 24739 26229 29441 22513 20219 11518 1788 14519 9131 16258 21412 3632 13370 24190 1349 16793 21424 21106 19983 26270 16884 18169 24070 9014 3693 6928 3892 18883 17154 23385 5944 18246 9261 26231 21662 10049 27975 10558 7429 3601 12593 1463 23789 15565 27593 26168 12292 25127 9389 30411 21668 9882 27506 2413 12123 21883 2215 14021 25023 4466 20897 2754 19861 7255 29234 11463 10274 6696 5476 27208 22138 23345 15375 22189 9303 18912 25181 3576 23041 21375 3479 28194 25253 14714 1641 21412 5334 25075 13208 220 3712 13976 29110 18782 21305 19685 19698 2595 26869 2300 19469 28659 29649 8042 22027 6081 1081 17374 2991 27699 14263 6052 10063 16029 474 13950 17945 2973 1060 1366 5366 9874 27200 11468 6729 1907 1488 15841 2182 23287 22197 29416 1501 17557 6807 13870 7971 1868 21685 26591 1112 26618 13021 5578 938 27740 30318 30193 10187 10158 23510 18767 12892 27654 21245 12077 20539 24990 5781 27426 520 27542 1673 20615 4225 3469 22113 11325 3582 4419 1776 27540 21616 20969 28140 4915 25575 5290 10481 27284 23136 668 26128 15561 28990 2436 25126 4863 7233 6352 15956 10260 11767 14210 175 26644 18709 6683 8230 19556 18313 3286 15854 14613 23504 9490 21373 13245 28100 15353 16229 17912 22833 10056 17504 25053 4270 22773 28376 2505 2705 26960 3594 24595 27853 16051 23250 24914 10855 7791 3527 18583 21944 3121 15957 18662 14096 8926 11817 28053 3223 23810 7142 23304 15545 16141 22615 20124 27547 1175 25875 12087 16618 6691 7272 21630 20518 17648 21249 25751 23921 20461 5483 29948 24237 23520 24364 29184 7991 11346 17268 30396 5435 5007 24695 932 13661 5890 27087 19961 377 12295 8976 3447 1327 26516 19624 2415 23098 25481 10489 16732 19790 15773 2103 10882 17190 180 27470 3286 26709 27360 21671 24019 3892 26971 19004 8632 2901 20323 8016 787 30093 28244 22739 25850 21492 4393 2110 8626 12467 21880 5353 1095 4490 13120 22195 27697 26633 22118 25119 14470 11642 4509 27757 349 14690 7201 29576 29712 21032 18734 7061 12125 12558 7737 4898 11320 18499 16141 8191 16957 7513 20115 27117 4678 11251 12867 4661 6642 26085 21791 17713 9461 23276 25740 13018 17165 14512 8786 2473 22575 6012 10555 23086 11834 18513 17542 4241 5556 10167 4763 16122 13811 10883 3653 29522 19393 26618 12028 14445 16496 900 23593 21584 18786 2928 30231 14761 25962 7470 21050 9343 25389 28119 26445 16739 6207 20431 17356 6533 13349 23726 23647 24987 8299 23637 13645 28592 26266 7497 22192 5818 9006 22330 18772 16704 17091 29074 23515 21991 29503 12803 5182 11701 27654 20844 25664 4936 3823 14670 15264 10951 28835 24520 26716 1250 15839 629 10463 5211 5935 7856 10351 20107 19311 14350 19173 28653 14467 27113 6970 1190 21211 2087 6552 5374 30118 7765 7972 18653 29592 4589 969 11534 11580 22843 23207 5056 10648 12582 21524 9898 1729 25622 17796 6225 16539 11445 8376 16521 4526 28087 6387 7130 17720 5904 25204 20555 8823 20480 30437 13144 19919 9491 24003 28337 18380 18832 18144 17453 26493 14736 7533 24585 25081 13130 15280 21050 23867 17494 4597 24556 10629 21490 19058 7653 10520 10348 19920 25136 19978 20365 26005 11923 22760 23439 10350 3384 13500 23003 119 21023 20043 15748 17635 10799 29921 2847 10736 7711 27810 23954 15844 11042 6380 22759 13080 18373 25296 17360 11449 11559 16166 22980 30352 719 16370 6532 13091 21213 10776 803 9633 26048 15604 13781 18698 22528 3638 9550 13499 23455 24620 25603 9033 17093 26890 21948 2588 7756 4435 2616 26672 9406 28106 19060 15732 8990 7804 21361 18703 16063 12859 635 24188 21811 23201 17395 171 23339 25198 30090 7835 9357 2110 20666 27268 27416 26598 9135 27059 10835 15033 23209 11607 13137 29617 9917 6012 9020 9416 3799 21463 8773 29844 1838 11557 26610 27148 25354 2903 15290 10438 5233 231 16813 23106 17825 27133 29959 27051 25056 4732 15225 6820 6941 12374 30132 5379 21241 16766 11706 1463 25064 8645 1612 21161 16040 548 1681 17244 2553 15413 21747 115 17370 13780 13516 2580 23682 24585 12147 26576 12702 6162 5265 8128 25189 13522 16598 718 7223 8483 18582 1852 19682 13011 11376 22510 8829 20684 22196 14346 11933 11132 3493 5307 8630 21478 29198 2844 18397 10230 3912 2522 11266 30060 5433 14058 24650 4856 22411 66 7701 10846 1238 7886 30253 21812 12923 12374 17272 2501 19304 16441 10344 5555 15074 15347 11857 3173 11804 26258 29226 27071 3883 3456 20133 28342 15700 3588 22084 20216 29467 4092 27878 20164 2132 5667 26516 8349 30202 27991 19148 26930 9672 29198 12668 25311 11483 4002 30263 26914 5641 7619 12828 11817 12820 16737 7593 1162 7805 24313 29971 26868 7265 8165 20354 13830 409 17011 19786 24017 10621 3454 16408 27015 12566 18030 9326 13496 45 30416 14956 16151 14360 23892 22798 27385 14562 8265 16473 14412 24426 3074 10903 3140 18934 2502 25055 26506 30094 24879 8946 5839 3382 29954 3893 25731 4693 23615 14110 27821 11422 3641 1513 1433 26006 19029 21625 17143 23683 27463 5051 10220 17305 26967 23073 9323 16893 28583 6484 9161 21542 28998 12596 6197 17320 3305 14345 5069 5863 5561 24176 7616 6750 21105 25599 15978 20513 24658 2478 14723 11058 7402 14442 2616 12918 6631 14749 24471 28786 2859 22999 28955 1391 10479 3867 12567 15820 15549 20614 19259 1988 16588 27955 22587 25001 3328 16036 669 16738 16063 12056 25159 3279 23378 17203 29924 14191 3871 26764 1913 18106 6025 864 7794 6907 19576 21961 14154 14558 19319 20875 1162 22194 24662 19041 2997 17247 18036 22221 12866 11746 25601 12390 7288 22420 6354 15226 13919 6649 28304 16442 18513 19021 8378 15356 23040 2247 27292 21824 21729 25182 7028 8804 26046 28704 15688 16293 7141 8763 16398 7259 28758 15087 760 7436 15135 27558 12772 21507 3976 3366 13455 14466 20285 7964 22199 17153 23006 10769 5733 6130 23472 5876 18670 27581 30242 29467 9443 11289 1529 6760 11342 24334 23983 978 14135 7390 12862 26395 19629 5705 14965 21880 14824 19097 29801 9013 27009 22711 29330 9270 17521 20865 10835 5752 17979 14058 23999 9100 1692 7615 3127 17842 18570 3154 3639 428 3873 1627 3067 4192 15012 15876 25261 3426 22191 28367 13470 25289 13655 5816 28905 7207 4210 5820 16552 14914 1023 6154 21298 15061 10456 26136 29214 17005 3216 18302 6849 8748 10960 10160 18502 19457 11133 8530 13915 28172 5349 8387 8768 5173 5138 19353 25062 24495 12343 16139 10595 22588 4764 28397 7114 17675 8043 24523 14923 5040 18425 13596 25613 3670 534 11886 17393 7804 14555 23992 10449 14927 1570 7654 19088 3567 19352 7576 4012 17460 674 26187 68 25493 26711 28393 1140 24146 11236 16212 16717 14564 19325 24525 23072 8434 5460 4378 15652 24614 8777 26289 18381 22303 19461 30189 19622 24005 5446 24060 20738 14707 23011 24055 17568 24648 27252 17726 17948 8486 3163 24148 18423 4933 2107 10909 26007 11753 14624 1520 22292 15879 21442 27039 12803 9294 5711 3858 277 24971 0 0 0 0 0 0 0 0 0 0 0 0 0 0 0 0 0 0 0 0 0 0 0 0 0 0 0 0 0 0 251 8308 10005 26193 12326 26337 19001 20074 27765 20652 25282 1601 18070 26427 27715 1932 23547 18441 10000 10000 10000 10000 10000 10000 10000 10000 10000 10000 10000 10000 10000 10000 10000 10000 10000 10000 10000 10000 10000 10000 10000 10000 10000 10000 10000 10000 10000 10000 24210 27135 12475 27196 10439 709 14940 21641 21144 10366 13165 22010 7293 9998 26833 75 25882 19363 22406 13817 6751 16674 12147 21971 2124 14077 4288 23682 21686 22243 14476 2461 26357 469 6028 7488 6792 17173 19251 9306 19607 790 5771 5523 3956 12735 18165 13013 22211 22269 0 0 0 0 0 0 0 0 0 0 0 0 0 0 0 0 0 0 0 0 0 0 0 0 0 0 0 0 0 0 9658 27184 20431 8672 20574 10775 12862 9023 22992 11192 23900 26754 2091 14989 26789 19799 4476 21490 10000 10000 10000 10000 10000 10000 10000 10000 10000 10000 10000 10000 10000 10000 10000 10000 10000 10000 10000 10000 10000 10000 10000 10000 10000 10000 10000 10000 10000 10000 5582 13481 22993 11625 12648 29666 29203 14300 22408 25566 28694 8063 18900 3690 22175 10900 14745 16009 28806 18248 2428 15436 16602 2448 11228 11711 24286 22635 8474 8231 5491 21440 15355 4172 14271 3892 19910 2396 3570 1451 4387 12291 530 15644 10512 29214 26408 14715 15702 16175 0 0 0 0 0 0 0 0 0 0 0 0 0 0 0 0 0 0 0 0 0 0 0 0 0 0 0 0 0 0 25756 25767 19304 9442 17832 13258 13720 12736 337 23571 10184 17292 25021 9622 5021 7364 9468 21370 10000 10000 10000 10000 10000 10000 10000 10000 10000 10000 10000 10000 10000 10000 10000 10000 10000 10000 10000 10000 10000 10000 10000 10000 10000 10000 10000 10000 10000 10000 18945 18002 21377 13735 17649 14077 23887 29916 22269 22868 4611 24979 7610 1449 8464 6850 27467 5792 21725 2126 14248 15243 4373 803 26922 6173 29957 10184 15135 29464 2018 17050 4031 5566 14714 969 525 261 19535 20938 16199 28008 519 27146 18684 24402 11219 24780 8229 11320 0 0 0 0 0 0 0 0 0 0 0 0 0 0 0 0 0 0 0 0 0 0 0 0 0 0 0 0 0 0 5991 6021 12269 73 26208 4949 7787 9725 20406 12827 17875 22831 11828 4714 30354 3716 6104 26235 10000 10000 10000 10000 10000 10000 10000 10000 10000 10000 10000 10000 10000 10000 10000 10000 10000 10000 10000 10000 10000 10000 10000 10000 10000 10000 10000 10000 10000 10000 21717 4693 11101 8437 23882 4959 11911 5244 20789 24181 6271 27792 20797 20508 11225 17572 15469 29781 29174 15439 18056 13112 29433 22763 18631 30317 15110 4069 22063 5559 20059 17393 21731 3258 2331 25471 24867 27962 15523 10576 14031 17645 5154 19454 17028 17898 7928 21896 16934 19440 0 0 0 0 0 0 0 0 0 0 0 0 0 0 0 0 0 0 0 0 0 0 0 0 0 0 0 0 0 0 6416 19534 14048 22174 27499 23818 15124 22218 12678 11306 11627 25459 26651 520 26778 9175 18519 20966 10000 10000 10000 10000 10000 10000 10000 10000 10000 10000 10000 10000 10000 10000 10000 10000 10000 10000 10000 10000 10000 10000 10000 10000 10000 10000 10000 10000 10000 10000 11603 9788 8961 17830 28948 23872 1934 20733 29656 17730 14975 6139 10494 25057 24153 28188 3349 3908 22258 21012 11521 14921 21843 8642 23905 12555 15950 11855 26499 14033 9403 14082 3730 24780 27455 5191 10637 21375 20325 300 932 16347 20595 7494 17758 4821 22969 29408 29368 28696 0 0 0 0 0 0 0 0 0 0 0 0 0 0 0 0 0 0 0 0 0 0 0 0 0 0 0 0 0 0 10038 8381 44 12445 24665 18763 18334 18315 19846 21708 919 5547 6839 7478 679 29305 3735 27079 10000 10000 10000 10000 10000 10000 10000 10000 10000 10000 10000 10000 10000 10000 10000 10000 10000 10000 10000 10000 10000 10000 10000 10000 10000 10000 10000 10000 10000 10000 24864 10267 10560 29463 3621 12561 11786 15418 8183 15074 13409 16336 6907 14802 13797 22725 1281 20276 23850 5140 16457 20118 20253 453 8363 26978 18379 22720 7971 5876 24148 9533 2191 5106 5043 3856 26421 9839 9105 14533 6268 7486 15295 2323 9789 22347 5595 15760 21249 27288 0 0 0 0 0 0 0 0 0 0 0 0 0 0 0 0 0 0 0 0 0 0 0 0 0 0 0 0 0 0 883 3226 8774 10806 19954 11646 437 18265 27718 17498 23538 5199 21259 23847 23267 8561 27502 3068 10000 10000 10000 10000 10000 10000 10000 10000 10000 10000 10000 10000 10000 10000 10000 10000 10000 10000 10000 10000 10000 10000 10000 10000 10000 10000 10000 10000 10000 10000 17418 22158 15167 20403 24274 22874 4029 26024 5803 28121 29744 13364 26979 21991 3500 1282 2247 8703 17101 27462 29780 16171 29011 4480 3854 22372 8787 16000 12393 4013 19023 26223 15892 24536 12745 20130 18674 14870 20844 6576 13494 26028 10810 29743 4272 2695 5677 24276 10343 7660 0 0 0 0 0 0 0 0 0 0 0 0 0 0 0 0 0 0 0 0 0 0 0 0 0 0 0 0 0 0 9312 19057 16255 311 17885 19167 8003 8371 16951 10863 2997 6717 28676 21858 11133 28820 11688 13502 10000 10000 10000 10000 10000 10000 10000 10000 10000 10000 10000 10000 10000 10000 10000 10000 10000 10000 10000 10000 10000 10000 10000 10000 10000 10000 10000 10000 10000 10000 24190 28324 7637 25847 22991 22262 7892 27335 405 23725 11887 13385 17016 2434 18267 14496 24975 24245 19155 4684 27483 10716 7208 22600 14476 282 12583 4067 898 18403 17874 24045 30131 28414 22314 4148 9182 3033 20067 7430 20791 7743 20335 8902 22038 24145 29217 30075 14356 8425 0 0 0 0 0 0 0 0 0 0 0 0 0 0 0 0 0 0 0 0 0 0 0 0 0 0 0 0 0 0 28553 10857 5066 23591 21174 25343 9028 8150 11589 24944 29612 22011 6131 28390 12041 19304 6774 6885 10000 10000 10000 10000 10000 10000 10000 10000 10000 10000 10000 10000 10000 10000 10000 10000 10000 10000 10000 10000 10000 10000 10000 10000 10000 10000 10000 10000 10000 10000 11940 23774 26719 27347 13879 4602 16674 10283 6999 13903 25190 5005 19186 23342 20282 21944 13538 10589 17551 6117 8203 6526 5802 19026 15038 20197 20714 23985 3255 30002 27719 14700 25997 18808 7606 27794 18675 5776 16680 923 26866 17661 11777 21475 28849 30371 9345 7000 25830 20295 0 0 0 0 0 0 0 0 0 0 0 0 0 0 0 0 0 0 0 0 0 0 0 0 0 0 0 0 0 0 11803 20048 19846 4584 26050 13514 30209 2998 9673 25917 28844 27807 28895 27864 14637 3341 28981 5814 10000 10000 10000 10000 10000 10000 10000 10000 10000 10000 10000 10000 10000 10000 10000 10000 10000 10000 10000 10000 10000 10000 10000 10000 10000 10000 10000 10000 10000 10000 8884 12781 23666 20138 30176 6543 20743 4221 22366 14550 20103 26118 4966 20161 4054 3308 20655 27344 24517 1457 12104 25693 12508 27324 18183 7746 8958 29703 13682 389 2169 28355 20719 2803 8877 20062 13163 7719 17915 5356 17341 30410 17053 16683 25355 21910 24606 18352 20980 20119 0 0 0 0 0 0 0 0 0 0 0 0 0 0 0 0 0 0 0 0 0 0 0 0 0 0 0 0 0 0 25173 28969 16723 6171 14079 5171 27449 1874 16234 24762 12841 17147 23978 26273 2294 16897 13628 13198 10000 10000 10000 10000 10000 10000 10000 10000 10000 10000 10000 10000 10000 10000 10000 10000 10000 10000 10000 10000 10000 10000 10000 10000 10000 10000 10000 10000 10000 10000 24040 4068 19142 1242 3250 13546 34 1046 17536 4926 14066 5349 7863 11111 2059 28978 19088 2073 2292 30222 2354 18539 11236 20779 3077 27807 11668 14534 16725 5786 22452 20365 5445 26601 24056 24424 14118 22317 20265 25866 15305 184 13223 24948 13483 2010 26214 17134 8902 8522 0 0 0 0 0 0 0 0 0 0 0 0 0 0 0 0 0 0 0 0 0 0 0 0 0 0 0 0 0 0 3996 28964 5789 1751 20452 3536 10268 17184 4230 2495 14277 1554 643 17107 15187 676 11069 14432 10000 10000 10000 10000 10000 10000 10000 10000 10000 10000 10000 10000 10000 10000 10000 10000 10000 10000 10000 10000 10000 10000 10000 10000 10000 10000 10000 10000 10000 10000 26 10522 9926 17526 2928 24895 11766 27273 20832 10057 21145 26469 2145 7615 3375 11118 17548 14763 2784 4335 1245 21834 24298 25825 16452 7447 11393 16159 24253 9952 11791 4427 12500 9939 4903 7419 22376 17193 26713 24107 6644 28154 27457 27220 20444 1186 30346 15093 2023 29828 0 0 0 0 0 0 0 0 0 0 0 0 0 0 0 0 0 0 0 0 0 0 0 0 0 0 0 0 0 0 21978 8954 16517 4837 27055 16150 27101 21409 6808 28354 24451 4681 20598 7034 24353 747 11577 16577 10000 10000 10000 10000 10000 10000 10000 10000 10000 10000 10000 10000 10000 10000 10000 10000 10000 10000 10000 10000 10000 10000 10000 10000 10000 10000 10000 10000 10000 10000 12557 29316 28245 6048 8418 1232 23420 8321 13116 22855 17856 26869 18194 23239 26574 20461 14877 23371 13157 9888 25411 16644 24614 11646 30008 2711 9284 3657 15748 12356 17249 13369 6080 1326 9464 3393 13736 12669 10283 12760 28554 27606 5743 14881 14474 26595 30428 21374 19476 18357 0 0 0 0 0 0 0 0 0 0 0 0 0 0 0 0 0 0 0 0 0 0 0 0 0 0 0 0 0 0 15444 21668 27075 19067 16567 7068 26132 10921 12943 26828 26700 13427 19211 24142 20584 20038 15950 1958 10000 10000 10000 10000 10000 10000 10000 10000 10000 10000 10000 10000 10000 10000 10000 10000 10000 10000 10000 10000 10000 10000 10000 10000 10000 10000 10000 10000 10000 10000 24510 29525 4549 29842 8134 12724 9566 27225 26950 8231 6417 23485 5296 13993 4023 16949 22752 1259 13547 26652 15599 22030 1588 26372 30383 26462 9911 16366 11530 7563 12713 29970 29488 2010 23667 6569 586 12887 4350 27298 19675 27769 17234 23710 4979 5005 8519 23445 15159 17542 0 0 0 0 0 0 0 0 0 0 0 0 0 0 0 0 0 0 0 0 0 0 0 0 0 0 0 0 0 0 7445 10786 9121 16633 2393 9787 20266 24826 27805 14216 8296 28383 22154 25941 7929 22208 25514 1352 10000 10000 10000 10000 10000 10000 10000 10000 10000 10000 10000 10000 10000 10000 10000 10000 10000 10000 10000 10000 10000 10000 10000 10000 10000 10000 10000 10000 10000 10000 13420 18526 10894 11353 18356 13543 26289 4932 30301 21091 21325 7321 6573 3639 17795 6916 10418 2217 24797 7600 5793 23631 24929 16157 8749 741 8197 17485 9611 18855 19700 19466 2324 10049 26782 26304 19651 17631 7376 20490 16289 8382 9344 17658 11112 22323 7211 9313 8528 6981 0 0 0 0 0 0 0 0 0 0 0 0 0 0 0 0 0 0 0 0 0 0 0 0 0 0 0 0 0 0 19753 13666 22945 26442 9168 9554 16879 24208 13022 23054 30255 11663 548 15730 15084 23276 4576 28756 10000 10000 10000 10000 10000 10000 10000 10000 10000 10000 10000 10000 10000 10000 10000 10000 10000 10000 10000 10000 10000 10000 10000 10000 10000 10000 10000 10000 10000 10000 20675 20900 29196 11268 2878 18225 21953 3396 29260 2251 26762 25776 23530 2783 28174 12904 16047 13499 17282 17284 13541 23024 26883 12910 9478 21128 13752 12044 23152 17890 15193 17641 13257 10296 5875 4572 12251 29044 6197 16783 7533 12344 13642 13086 7983 19105 14930 30122 962 19205 0 0 0 0 0 0 0 0 0 0 0 0 0 0 0 0 0 0 0 0 0 0 0 0 0 0 0 0 0 0 25831 5243 20393 30011 16949 8354 23665 12116 5936 26254 13962 17008 2028 27997 17058 15294 15084 8456 10000 10000 10000 10000 10000 10000 10000 10000 10000 10000 10000 10000 10000 10000 10000 10000 10000 10000 10000 10000 10000 10000 10000 10000 10000 10000 10000 10000 10000 10000 20385 17949 7224 16673 4975 26766 11608 23025 13549 12090 26475 20664 4697 2459 4301 19244 25259 24942 13830 27260 18875 19627 22615 18317 3927 27060 25259 1716 13749 11746 26799 26249 21291 22007 29822 3381 15308 23754 28510 18104 21718 28912 13699 20269 26392 27384 5329 11710 22994 21266 0 0 0 0 0 0 0 0 0 0 0 0 0 0 0 0 0 0 0 0 0 0 0 0 0 0 0 0 0 0 16156 21676 13280 17225 329 4528 16974 5223 22014 332 17626 15563 26253 17813 10338 11448 15520 9130 10000 10000 10000 10000 10000 10000 10000 10000 10000 10000 10000 10000 10000 10000 10000 10000 10000 10000 10000 10000 10000 10000 10000 10000 10000 10000 10000 10000 10000 10000 1785 20857 29471 21409 4904 3626 18118 18601 21339 27946 12632 833 29570 13425 11829 29776 7463 21508 18593 24291 26720 27326 12948 21168 1836 14910 22587 24585 30282 29787 23988 7555 30406 3739 24232 18288 11540 3063 6597 6182 18278 7899 10427 547 14024 2064 23335 6694 12032 26163 0 0 0 0 0 0 0 0 0 0 0 0 0 0 0 0 0 0 0 0 0 0 0 0 0 0 0 0 0 0 26613 13266 3900 4592 5124 14864 29207 28002 21408 3655 27158 26179 13058 24542 29030 25203 14660 3869 10000 10000 10000 10000 10000 10000 10000 10000 10000 10000 10000 10000 100