<?xml version="1.0"?>
<VTKFile type="ImageData" version="0.1" byte_order="LittleEndian">
<ImageData WholeExtent="0 128 0 128 0 1" Origin="0 0 0" Spacing="1 1 1">
<Piece Extent="0 128 0 128 0 1">
<PointData>
</PointData>
<CellData Scalars="Spin">
<DataArray type="Int32" Name="Spin" format="ascii" RangeMin="0" RangeMax="30443">
28105 28105 28105 28105 28105 28105 28105 14958 14958 14958 30168 30168 30168 30168 30168 30168 30168 30168 30168 30168 30168 2481 2481 2481 2481 2481 2481 2481 30381 30381 30381 30381 30381 30381 30381 30381 30381 30381 30381 30381 30381 30381 30381 30381 26369 26369 26369 26369 26369 26369 26369 26369 26369 26369 7443 7443 7443 7443 7443 7443 7443 15684 15684 15684 15684 15684 29930 29930 29930 29930 29930 2267 2267 2267 2267 27143 27143 27143 4498 4498 4498 4498 4498 4498 4498 4498 4498 4498 4498 9319 9319 9319 9319 18705 18705 18705 18705 18705 27170 16623 16623 16623 16623 12912 12912 12912 12912 12912 12912 29471 29471 29471 29471 29471 29471 29471 29471 29471 29471 29471 29471 29471 28105 28105 28105 28105 28105 28105 28105 28105 28105 28105 28105 28105 14958 14958 14958 14958 14958 30168 30168 30168 30168 30168 30168 30168 30168 30168 2481 2481 2481 2481 2481 2481 2481 2481 30381 30381 30381 30381 30381 30381 30381 30381 30381 30381 30381 30381 30381 30381 30381 30381 26369 26369 26369 26369 26369 26369 26369 26369 26369 26369 7443 7443 7443 7443 7443 7443 15684 15684 15684 15684 15684 15684 15684 29930 29930 29930 2267 2267 2267 2267 2267 2267 27143 4498 4498 4498 4498 4498 4498 4498 4498 4498 4498 4498 4498 4498 9319 9319 18705 18705 18705 18705 18705 18705 16623 16623 16623 16623 16623 16623 12912 12912 12912 12912 29471 29471 29471 29471 29471 29471 29471 29471 29471 29471 29471 29471 29471 29471 28105 28105 28105 28105 28105 28105 28105 28105 28105 28105 28105 14958 14958 14958 14958 14958 14958 14958 30168 30168 30168 30168 30168 30168 30168 30168 2481 2481 2481 2481 2481 2481 2481 2481 30381 30381 30381 30381 30381 30381 30381 30381 30381 30381 30381 30381 30381 30381 30381 29509 29509 26369 26369 26369 26369 26369 26369 26369 26369 26369 7443 7443 7443 7443 7443 7443 15684 15684 15684 15684 15684 15684 20470 20470 29930 2267 2267 2267 2267 2267 2267 2267 4498 4498 4498 4498 4498 4498 4498 4498 4498 4498 4498 4498 4498 4498 4498 18705 18705 18705 18705 18705 18705 18705 16623 16623 16623 16623 16623 16623 16623 12912 12912 11499 11499 29471 29471 29471 29471 29471 29471 29471 29471 29471 29471 29471 29471 29115 29115 29115 28105 28105 28105 28105 29115 29115 29115 29115 29115 14958 14958 14958 14958 14958 14958 14958 14958 30168 30168 30168 30168 30168 30168 2481 2481 2481 2481 2481 2481 2481 2481 2481 2481 30381 30381 30381 30381 30381 30381 30381 30381 30381 30381 30381 30381 30381 29509 29509 29509 29509 26369 26369 26369 26369 26369 26369 26369 26256 26256 7443 7443 7443 7443 11030 15684 15684 15684 15684 15684 20470 20470 20470 20470 2267 2267 2267 2267 2267 2267 2267 4498 4498 4498 4498 4498 4498 4498 4498 4498 4498 4498 4498 4498 4498 4498 18705 18705 18705 18705 18705 18705 18705 16623 16623 16623 16623 16623 16623 16623 16623 11499 11499 11499 11499 29471 29471 29471 29471 29471 29471 29471 29471 29471 29471 29115 29115 29115 29115 29115 29115 29115 29115 29115 29115 29115 29115 29115 14958 14958 14958 14958 14958 14958 14958 14958 14958 30168 30168 30168 30168 2481 2481 2481 2481 2481 2481 2481 2481 2481 2481 2481 2481 30381 24737 24737 30381 30381 30381 30381 30381 30381 30381 30381 29509 29509 29509 29509 29509 29509 26369 26369 26369 26369 26369 26256 26256 26256 26256 7443 7443 11030 11030 11030 15684 15684 15684 20470 20470 20470 20470 20470 20470 2267 2267 2267 2267 2267 2267 4498 4498 4498 4498 4498 4498 4498 4498 4498 4498 4498 4498 4498 4498 4498 18705 18705 18705 18705 18705 18705 18705 16623 16623 16623 16623 16623 16623 16623 16623 11499 11499 11499 11499 27629 29471 29471 29471 29471 29471 29471 29471 29471 29115 29115 29115 29115 29115 29115 29115 29115 29115 29115 29115 29115 29115 29115 14958 14958 14958 14958 14958 14958 14958 14958 14958 14958 20730 20730 2481 2481 2481 2481 2481 2481 2481 2481 2481 2481 2481 2481 2481 24737 24737 24737 24737 24737 24737 24737 24737 30381 30381 29509 29509 29509 29509 29509 29509 29509 29509 26256 26256 26256 26256 26256 26256 26256 26256 26256 11030 11030 11030 11030 972 972 20470 20470 20470 20470 20470 20470 20470 2267 2267 2267 2267 2267 2267 4498 4498 4498 4498 4498 4498 4498 4498 4498 4498 4498 4498 4498 4498 4498 18705 18705 18705 18705 18705 18705 18705 16623 16623 16623 16623 16623 16623 16623 21698 21698 11499 11499 11499 27629 27629 29471 29471 29471 29471 29471 29471 29115 29115 29115 29115 29115 29115 29115 29115 29115 29115 29115 29115 29115 29115 14958 14958 14958 14958 14958 14958 14958 14958 14958 14958 14958 20730 20730 20730 2481 2481 2481 2481 2481 2481 2481 2481 2481 2481 2481 24737 24737 24737 24737 24737 24737 24737 24737 24737 24737 24737 29509 29509 29509 29509 29509 29509 29509 29509 26256 26256 26256 26256 26256 26256 26256 26256 11030 11030 11030 11030 972 972 972 972 20470 20470 20470 20470 20470 20470 2267 2267 2267 2267 2267 4498 4498 4498 4498 4498 4498 4498 4498 4498 4498 4498 4498 4498 4498 4498 4498 18705 18705 18705 18705 18705 18705 16623 16623 16623 16623 16623 16623 16623 21698 21698 21698 21698 11499 27629 27629 27629 27629 27629 27629 27629 27629 27629 29115 29115 29115 29115 29115 29115 29115 29115 29115 29115 29115 29115 29115 29115 14958 14958 14958 14958 14958 14958 14958 14958 14958 14958 20730 20730 20730 20730 2481 2481 2481 2481 2481 2481 2481 2481 2481 2481 24737 24737 24737 24737 24737 24737 24737 24737 24737 24737 24737 24737 24737 29509 29509 29509 29509 29509 29509 29509 26256 26256 26256 26256 26256 26256 26256 26256 11030 11030 11030 972 972 972 972 972 972 20470 20470 20470 20470 20470 29234 29234 29234 29234 4498 4498 4498 4498 4498 4498 4498 4498 4498 4498 4498 4498 4498 4498 4498 4498 4498 18705 18705 18705 18705 18705 23040 23040 16623 16623 16623 16623 16623 21698 21698 21698 21698 21698 27629 27629 27629 27629 27629 27629 27629 27629 27629 27629 27629 29115 29115 29115 29115 29115 29115 29115 29115 29115 29115 29115 29115 29115 14958 14958 14958 14958 14958 14958 14958 14958 14958 14958 20730 20730 20730 20730 2481 2481 2481 2481 2481 2481 2481 2481 2481 2481 24737 24737 24737 24737 24737 24737 24737 24737 24737 24737 24737 24737 24737 24737 29509 29509 29509 29509 29509 29509 26256 26256 26256 26256 26256 26256 20707 20707 20707 11030 972 972 972 972 972 972 972 20470 20470 20470 20470 29234 29234 29234 29234 29234 29234 4498 4498 4498 4498 4498 4498 4498 4498 4498 4498 4498 4498 4498 4498 4498 4498 18705 18705 18705 18705 23040 23040 23040 23040 16623 16623 21698 21698 21698 21698 21698 21698 21698 27629 27629 27629 27629 27629 27629 27629 27629 27629 27629 27629 29115 29115 29115 29115 29115 29115 29115 29115 29115 29115 29115 29115 2648 2648 14958 14958 14958 14958 14958 14958 14718 14718 14718 14718 20730 15842 15842 15842 2481 2481 2481 2481 2481 2481 2481 2481 6521 24737 24737 24737 24737 24737 24737 24737 24737 24737 24737 24737 24737 24737 24737 24737 28418 28418 28418 28418 28418 26256 26256 26256 26256 26256 20707 20707 20707 20707 972 972 972 972 972 972 972 972 20470 20470 20470 29234 29234 29234 29234 29234 29234 29234 29234 4498 4498 4498 4498 4498 4498 4498 4498 4498 4498 4498 4498 4498 3994 3994 3994 18705 18705 23040 23040 23040 23040 23040 23040 21698 21698 21698 21698 21698 21698 21698 21698 27629 27629 27629 27629 27629 27629 27629 27629 27629 27629 22174 22174 22174 29115 29115 29115 29115 29115 29115 29115 29115 29115 2648 2648 2648 14718 14718 14718 14718 14718 14718 14718 14718 14718 14718 15842 15842 15842 15842 15842 15842 2481 2481 2481 2481 6521 6521 6521 6521 24737 24737 24737 24737 24737 24737 24737 24737 24737 24737 24737 24737 24737 28418 28418 28418 28418 28418 28418 2199 2199 2199 2199 2199 20707 20707 20707 20707 972 972 972 972 972 972 972 972 7435 7435 29234 29234 29234 29234 29234 29234 29234 29234 29234 3036 3036 3036 4498 4498 4498 4498 4498 4498 4498 4498 4498 3994 3994 3994 3994 3994 23040 23040 23040 23040 23040 23040 23040 21698 21698 21698 21698 21698 21698 21698 27629 27629 27629 27629 27629 27629 27629 27629 27629 27629 27629 22174 22174 22174 22174 29115 29115 29115 29115 29115 29115 29115 2648 2648 2648 14718 14718 14718 14718 14718 14718 14718 14718 14718 14718 14718 15842 15842 15842 15842 15842 15842 15842 2481 2481 6521 6521 6521 6521 6521 24737 24737 24737 24737 24737 24737 24737 24737 24737 24737 24737 24737 24737 28418 28418 28418 28418 28418 2199 2199 2199 2199 2199 2199 20707 20707 20707 20707 20707 972 972 972 972 972 972 7435 7435 7435 29234 29234 29234 29234 29234 29234 29234 29234 29234 3036 3036 3036 3036 4498 4498 4498 4498 4498 4498 4498 3994 3994 3994 3994 3994 3994 23040 23040 23040 23040 23040 23040 23040 21698 21698 21698 21698 21698 21698 21698 27629 27629 27629 27629 27629 27629 27629 27629 27629 27629 27629 22174 22174 22174 22174 22174 29115 29115 29115 29115 29115 2648 2648 2648 14718 14718 14718 14718 14718 14718 14718 14718 14718 14718 14718 14718 15842 15842 15842 15842 15842 15842 15842 15842 24313 24313 6521 6521 6521 6521 6521 24737 24737 24737 24737 24737 24737 24737 24737 24737 24737 24737 28418 28418 28418 28418 28418 28418 2199 2199 2199 2199 2199 2199 2199 2199 20707 20707 20707 12317 12317 972 972 972 7435 7435 7435 7435 29234 29234 29234 29234 29234 29234 29234 29234 29234 3036 3036 3036 3036 3036 4498 4498 4498 4498 4498 4498 3994 3994 3994 3994 3994 3994 23040 23040 23040 23040 23040 23040 23040 21698 21698 21698 21698 21698 21698 27629 27629 27629 27629 27629 27629 27629 27629 27629 27629 27629 27629 22174 22174 22174 22174 22174 22174 29115 29115 29115 29115 2648 2648 2648 14718 14718 14718 14718 14718 14718 14718 14718 14718 14718 14718 14718 15842 15842 15842 15842 15842 15842 15842 15842 24313 24313 6521 6521 6521 6521 6521 0 0 0 24737 24737 24737 24737 24737 24737 24737 28418 28418 28418 28418 28418 28418 28418 2199 2199 2199 2199 2199 2199 2199 2199 2199 20707 12317 12317 12317 12317 972 7435 7435 7435 7435 7435 29234 29234 29234 29234 29234 29234 29234 29234 29234 3036 3036 3036 3036 3036 3036 4498 4498 4498 4498 3994 3994 3994 3994 3994 3994 3994 10000 23040 23040 23040 23040 23040 23040 21698 21698 21698 21698 21698 27629 27629 27629 27629 27629 27629 27629 27629 27629 27629 27629 27629 27629 27629 22174 22174 22174 22174 22174 22174 29115 29115 2648 2648 2648 14718 14718 14718 14718 14718 14718 14718 14718 14718 14718 14718 14718 14718 14718 15842 15842 15842 15842 15842 15842 24313 24313 24313 24313 6521 6521 6521 0 0 0 0 0 0 0 0 0 0 0 28418 28418 28418 28418 28418 28418 28418 2199 2199 2199 2199 2199 2199 2199 2199 2199 2199 12317 12317 12317 12317 12317 7435 7435 7435 7435 3893 29234 29234 29234 29234 29234 29234 29234 29234 29234 3036 3036 3036 3036 3036 10000 10000 10000 10000 10000 3994 3994 3994 3994 3994 3994 10000 10000 10000 10000 23040 23040 23040 23040 21698 21698 21698 21698 21698 27629 27629 27629 27629 27629 27629 27629 27629 27629 27629 27629 27629 27629 27629 22174 22174 22174 22174 22174 22174 19919 19919 2648 19919 14718 14718 14718 14718 14718 14718 14718 14718 14718 14718 14718 14718 14718 14718 14718 15842 15842 15842 15842 15842 24313 24313 24313 24313 24313 24313 6521 0 0 0 0 0 0 0 0 0 0 0 0 0 28418 28418 28418 28418 0 0 2199 2199 2199 2199 2199 2199 2199 2199 2199 2199 12317 12317 12317 12317 12317 12317 7435 7435 3893 3893 3893 29234 29234 29234 29234 29234 29234 29234 29234 29234 10000 10000 10000 10000 10000 10000 10000 10000 10000 10000 3994 3994 3994 10000 10000 10000 10000 10000 10000 10000 10000 10000 10000 21698 21698 21698 21698 27629 27629 27629 27629 27629 27629 27629 27629 27629 27629 27629 27629 27629 27629 27629 27629 22174 22174 22174 22174 19919 19919 19919 19919 19919 14718 14718 14718 14718 14718 14718 14718 14718 14718 14718 14718 14718 14718 14718 14718 14718 15842 15842 24313 24313 24313 24313 24313 24313 24313 24313 0 0 0 0 0 0 0 0 0 0 0 0 0 0 0 0 0 0 0 0 0 2199 2199 2199 2199 2199 2199 2199 2199 2199 2199 12317 12317 12317 12317 12317 12317 3893 3893 3893 3893 3893 29234 29234 29234 29234 29234 29234 29234 10000 10000 10000 10000 10000 10000 10000 10000 10000 10000 10000 10000 10000 10000 10000 10000 10000 10000 10000 10000 10000 10000 10000 10000 10000 21698 21698 16957 27629 27629 27629 27629 27629 27629 27629 27629 27629 27629 27629 27629 27629 27629 27629 27629 27629 22174 22174 19919 19919 19919 19919 19919 19919 19919 14718 14718 14718 14718 14718 14718 14718 14718 14718 14718 14718 14718 14718 14718 14718 14718 24313 24313 24313 24313 24313 24313 24313 24313 0 0 0 0 0 0 0 0 0 0 0 0 0 0 0 0 0 0 0 0 0 0 0 0 2199 2199 2199 2199 2199 2199 2199 2199 2199 12317 12317 12317 12317 12317 3893 3893 3893 3893 3893 3893 29234 29234 29234 29234 29234 10000 10000 10000 10000 10000 10000 10000 10000 10000 10000 10000 10000 10000 10000 10000 10000 10000 10000 10000 10000 10000 10000 10000 10000 10000 10000 10000 10000 27629 27629 27629 27629 27629 27629 27629 27629 27629 27629 27629 27629 27629 27629 27629 27629 27629 19919 19919 19919 19919 19919 19919 19919 19919 19919 19919 14718 14718 14718 14718 14718 14718 14718 14718 14718 14718 14718 14718 14718 14718 14718 24313 24313 24313 24313 24313 24313 24313 24313 0 0 0 0 0 0 0 0 0 0 0 0 0 0 0 0 0 0 0 0 0 0 0 0 0 0 0 0 2199 2199 2199 2199 2199 2199 12317 12317 4693 4693 4693 3893 3893 3893 3893 3893 3893 3893 29234 29234 29234 10000 10000 10000 10000 10000 10000 10000 10000 10000 10000 10000 10000 10000 10000 10000 10000 10000 10000 10000 10000 10000 10000 10000 10000 10000 10000 10000 10000 10000 10000 10000 27629 27629 27629 27629 27629 27629 27629 27629 27629 27629 27629 27629 27629 27629 14745 19919 19919 19919 19919 19919 19919 19919 19919 19919 19919 14718 14718 14718 14718 14718 14718 14718 14718 14718 14718 14718 14718 14718 14718 24313 24313 24313 24313 24313 24313 24313 24313 0 0 0 0 0 0 0 0 0 0 0 0 0 0 0 0 0 0 0 0 0 0 0 0 0 0 0 0 0 0 0 2199 2199 2199 7223 7223 4693 4693 4693 4693 4693 3893 3893 3893 3893 3893 3893 10000 10000 10000 10000 10000 10000 10000 10000 10000 10000 10000 10000 10000 10000 10000 10000 10000 10000 10000 10000 10000 10000 10000 10000 10000 10000 10000 10000 10000 10000 10000 10000 10000 10000 10000 27629 27629 27629 27629 27629 27629 27629 27629 27629 27629 27629 14745 14745 14745 14745 19919 19919 19919 19919 19919 19919 19919 19919 19919 14718 14718 14718 14718 14718 14718 14718 14718 14718 14718 14718 14718 9306 9306 9306 24313 24313 24313 24313 24313 24313 24313 0 0 0 0 0 0 0 0 0 0 0 0 0 0 0 0 0 0 0 0 0 0 0 0 0 0 0 0 0 0 0 0 0 0 0 7223 4693 4693 4693 4693 4693 4693 3893 3893 3893 3893 10000 10000 10000 10000 10000 10000 10000 10000 10000 10000 10000 10000 10000 10000 10000 10000 10000 10000 10000 10000 10000 10000 10000 10000 10000 10000 10000 10000 10000 10000 10000 10000 10000 10000 10000 10000 8183 8183 8183 8183 27629 27629 27629 27629 27629 27629 14745 14745 14745 14745 14745 14745 19919 19919 19919 19919 19919 19919 19919 19919 19919 14718 14718 14718 14718 14718 14718 14718 14718 14718 14718 9306 9306 9306 9306 9306 24313 24313 24313 24313 24313 0 0 0 0 0 0 0 0 0 0 0 0 0 0 0 0 0 0 0 0 0 0 0 0 0 0 0 0 0 0 0 0 0 0 0 0 0 4693 4693 4693 4693 4693 4693 4693 4693 4693 10000 10000 10000 10000 10000 10000 10000 10000 10000 10000 10000 10000 10000 10000 10000 10000 10000 10000 10000 10000 10000 10000 10000 10000 10000 10000 10000 10000 10000 10000 10000 10000 10000 10000 10000 10000 10000 8183 8183 8183 8183 8183 8183 8183 8183 8183 8183 14745 14745 14745 14745 14745 14745 14745 19919 19919 19919 19919 19919 19919 19919 9672 9672 14718 14718 14718 14718 14718 14718 14718 9306 9306 9306 9306 9306 9306 9306 9306 24313 24313 24313 0 0 0 0 0 0 0 0 0 0 0 0 0 0 0 0 0 0 0 0 0 0 0 0 0 0 0 0 0 0 0 0 0 0 0 0 0 0 0 4693 4693 4693 4693 4693 4693 4693 10000 10000 10000 10000 10000 10000 10000 10000 10000 10000 10000 10000 10000 10000 10000 10000 10000 10000 10000 10000 10000 10000 10000 10000 10000 10000 10000 10000 10000 10000 10000 10000 10000 10000 10000 10000 10000 10000 10000 8183 8183 8183 8183 8183 8183 8183 8183 8183 8183 14745 14745 14745 14745 14745 14745 14745 19919 19919 19919 19919 19919 9672 9672 9672 9672 9672 14718 14718 14718 14718 9306 9306 9306 9306 9306 9306 9306 9306 9306 9306 24313 0 0 0 0 0 0 0 0 0 0 0 0 0 0 0 0 0 0 0 0 0 0 0 0 0 0 0 0 0 0 0 0 0 0 0 0 0 0 0 0 4693 4693 4693 4693 4693 4693 4693 10000 10000 10000 10000 10000 10000 10000 10000 10000 10000 10000 10000 10000 10000 10000 10000 10000 10000 10000 10000 10000 10000 10000 10000 10000 10000 10000 10000 10000 10000 10000 10000 10000 10000 10000 10000 10000 10000 10000 10000 8183 8183 8183 8183 8183 8183 8183 8183 8183 8183 14745 14745 14745 14745 14745 14745 14745 19919 19919 19919 20164 9672 9672 9672 9672 9672 9672 9672 14718 9306 9306 9306 9306 9306 9306 9306 9306 9306 9306 9306 0 0 0 0 0 0 0 0 0 0 0 0 0 0 0 0 0 0 0 0 0 0 0 0 0 0 0 0 0 0 0 0 0 0 0 0 0 0 0 0 0 4693 4693 4693 4693 4693 4693 4693 10000 10000 10000 10000 10000 10000 10000 10000 10000 10000 10000 10000 10000 10000 10000 10000 10000 10000 10000 10000 10000 10000 10000 10000 10000 10000 10000 10000 10000 10000 10000 10000 10000 10000 10000 10000 10000 10000 10000 10000 8183 8183 8183 8183 8183 8183 8183 8183 8183 8183 8183 14745 14745 14745 14745 14745 14745 20164 20164 20164 20164 9672 9672 9672 9672 9672 9672 9672 9306 9306 9306 9306 9306 9306 9306 9306 9306 9306 9306 0 0 0 0 0 0 0 0 0 0 0 0 0 0 0 0 0 0 0 0 0 0 0 0 0 0 0 0 0 0 0 0 0 0 0 0 0 0 0 0 0 0 4693 4693 4693 4693 4693 4693 10000 10000 10000 10000 10000 10000 10000 10000 10000 10000 10000 10000 10000 10000 10000 10000 10000 10000 10000 10000 10000 10000 10000 10000 10000 10000 10000 10000 10000 10000 10000 10000 10000 10000 10000 10000 10000 10000 10000 10000 10000 8183 8183 8183 8183 8183 8183 8183 8183 8183 8183 8183 14745 14745 14745 14745 14745 14745 20164 20164 20164 20164 20164 9672 9672 9672 9672 9672 9306 9306 9306 9306 9306 9306 9306 9306 9306 9306 9306 9306 0 0 0 0 0 0 0 0 0 0 0 0 0 0 0 0 0 0 0 0 0 0 0 0 0 0 0 0 0 0 0 0 0 0 0 0 0 0 0 0 0 0 0 4693 4693 4693 4693 4693 10000 10000 10000 10000 10000 10000 10000 10000 10000 10000 10000 10000 10000 10000 10000 10000 10000 10000 10000 10000 10000 10000 10000 10000 10000 10000 10000 10000 10000 10000 10000 10000 10000 10000 10000 10000 10000 10000 10000 10000 10000 8183 8183 8183 8183 8183 8183 8183 8183 8183 8183 8183 8183 14745 14745 14745 7208 7208 20164 20164 20164 20164 20164 9672 9672 9672 9672 9306 9306 9306 9306 9306 9306 9306 9306 9306 9306 9306 9306 0 0 0 0 0 0 0 0 0 0 0 0 0 0 0 0 0 0 0 0 0 0 0 0 0 0 0 0 0 0 0 0 0 0 0 0 0 0 0 0 0 0 0 0 0 4693 4693 4693 4693 10000 10000 10000 10000 10000 10000 10000 10000 10000 10000 10000 10000 10000 10000 10000 10000 10000 10000 10000 10000 10000 10000 10000 10000 10000 10000 10000 10000 10000 10000 10000 10000 10000 10000 10000 10000 10000 10000 10000 10000 10000 8183 8183 8183 8183 8183 8183 8183 8183 8183 8183 8183 8183 8183 14745 7208 7208 7208 7208 20164 20164 20164 16452 16452 16452 9672 9306 9306 9306 9306 9306 9306 9306 9306 9306 9306 9306 9306 9306 0 0 0 0 0 0 0 0 0 0 0 0 0 0 0 0 0 0 0 0 0 0 0 0 0 0 0 0 0 0 0 0 0 0 0 0 0 0 0 0 0 0 0 0 0 0 4693 10000 10000 10000 10000 10000 10000 10000 10000 10000 10000 10000 10000 10000 10000 10000 10000 10000 10000 10000 10000 10000 10000 10000 10000 10000 10000 10000 10000 10000 10000 10000 10000 10000 10000 10000 10000 10000 10000 10000 10000 10000 10000 10000 8183 8183 8183 8183 8183 8183 8183 8183 8183 8183 8183 8183 8183 7208 7208 7208 7208 7208 7208 20164 16452 16452 16452 16452 16452 9306 9306 9306 9306 9306 9306 9306 9306 9306 9306 9306 9306 0 0 0 0 0 0 0 0 0 0 0 0 0 0 0 0 0 0 0 0 0 0 0 0 0 0 0 0 0 0 0 0 0 0 0 0 0 0 0 0 0 0 0 0 0 0 0 0 10000 10000 10000 10000 10000 10000 10000 10000 10000 10000 10000 10000 10000 10000 10000 10000 10000 10000 10000 10000 10000 10000 10000 10000 10000 10000 10000 10000 10000 10000 10000 10000 10000 10000 10000 10000 10000 10000 10000 10000 10000 10000 10000 8183 8183 8183 8183 8183 8183 8183 8183 8183 8183 8183 8183 8183 7208 7208 7208 7208 7208 7208 7208 16452 16452 16452 16452 16452 16452 9306 9306 9306 9306 9306 9306 9306 9306 9306 9306 0 0 0 0 0 0 0 0 0 0 0 0 0 0 0 0 0 0 0 0 0 0 0 0 0 0 0 0 0 0 0 0 0 0 0 0 0 0 0 0 0 0 0 0 0 0 0 0 0 10000 10000 10000 10000 10000 10000 10000 10000 10000 10000 10000 10000 10000 10000 10000 10000 10000 10000 10000 10000 10000 10000 10000 10000 10000 10000 10000 10000 10000 10000 10000 10000 10000 10000 10000 10000 10000 10000 10000 10000 10000 10000 10000 8183 8183 8183 8183 8183 8183 8183 8183 8183 8183 8183 8183 8183 7208 7208 7208 7208 7208 7208 16452 16452 16452 16452 16452 16452 16452 16452 9306 9306 9306 9306 9306 9306 9306 9306 9306 0 0 0 0 0 0 0 0 0 0 0 0 0 0 0 0 0 0 0 0 0 0 0 0 0 0 0 0 0 0 0 0 0 0 0 0 0 0 0 0 0 0 0 0 0 0 0 0 0 24762 10000 10000 10000 10000 10000 10000 10000 10000 10000 10000 10000 10000 10000 10000 10000 10000 10000 10000 10000 10000 10000 10000 10000 10000 10000 10000 10000 10000 10000 10000 10000 10000 10000 10000 10000 10000 10000 10000 10000 10000 10000 10000 8183 8183 8183 8183 8183 8183 8183 8183 8183 8183 8183 8183 8183 7208 7208 7208 7208 7208 16452 16452 16452 16452 16452 16452 16452 16452 16452 16452 16452 17341 9306 9306 9306 9306 0 0 0 0 0 0 0 0 0 0 0 0 0 0 0 0 0 0 0 0 0 0 0 0 0 0 0 0 0 0 0 0 0 0 0 0 0 0 0 0 0 0 0 0 0 0 0 0 0 0 24762 24762 10000 10000 10000 10000 10000 10000 10000 10000 10000 10000 10000 10000 10000 10000 10000 10000 10000 10000 10000 10000 10000 10000 10000 10000 10000 10000 10000 10000 10000 10000 10000 10000 10000 10000 10000 10000 10000 10000 10000 10000 10000 10000 10000 8183 8183 8183 8183 8183 8183 8183 8183 8183 8183 8183 7208 7208 7208 7208 7208 7208 16452 16452 16452 16452 16452 16452 16452 16452 16452 16452 16452 17341 17341 17341 9306 0 0 0 0 0 0 0 0 0 0 0 0 0 0 0 0 0 0 0 0 0 0 0 0 0 0 0 0 0 0 0 0 0 0 0 0 0 0 0 0 0 0 0 0 0 0 0 0 0 0 24762 24762 24762 24762 10000 10000 10000 10000 10000 10000 10000 10000 10000 10000 10000 10000 10000 10000 10000 10000 10000 10000 10000 10000 10000 10000 10000 10000 10000 10000 10000 10000 10000 10000 10000 10000 10000 10000 10000 10000 10000 10000 10000 10000 10000 10000 10000 8183 8183 8183 8183 8183 8183 8183 8183 8183 8183 7208 7208 7208 7208 7208 7208 16452 16452 16452 16452 16452 16452 16452 16452 16452 16452 16452 17341 17341 17341 0 0 0 0 0 0 0 0 0 0 0 0 0 0 0 0 0 0 0 0 0 0 0 0 0 0 0 0 0 0 0 0 0 0 0 0 0 0 0 0 0 0 0 0 0 0 0 0 0 0 0 24762 24762 24762 10000 10000 10000 10000 10000 10000 10000 10000 10000 10000 10000 10000 10000 10000 10000 10000 10000 10000 10000 10000 10000 10000 10000 10000 10000 10000 10000 10000 10000 10000 10000 10000 10000 10000 10000 10000 10000 10000 10000 10000 10000 10000 10000 10000 8183 8183 8183 8183 8183 8183 8183 8183 8183 8183 7208 7208 7208 7208 7208 16452 16452 16452 16452 16452 16452 16452 16452 16452 16452 16452 16452 16452 17341 17341 0 0 0 0 0 0 0 0 0 0 0 0 0 0 0 0 0 0 0 0 0 0 0 0 0 0 0 0 0 0 0 0 0 0 0 0 0 0 0 0 0 0 0 0 0 0 0 0 0 0 0 24762 24762 24762 10000 10000 10000 10000 10000 10000 10000 10000 10000 10000 10000 10000 10000 10000 10000 10000 10000 10000 10000 10000 10000 10000 10000 10000 10000 10000 10000 10000 10000 10000 10000 10000 10000 10000 10000 10000 10000 10000 10000 10000 10000 10000 10000 10000 10000 8183 8183 8183 8183 8183 8183 8183 8183 17548 17548 17548 7208 7208 16452 16452 16452 16452 16452 16452 16452 16452 16452 16452 16452 16452 16452 16452 16452 17341 0 0 0 0 0 0 0 0 0 0 0 0 0 0 0 0 0 0 0 0 0 0 0 0 0 0 0 0 0 0 0 0 0 0 0 0 0 0 0 0 0 0 0 0 0 0 0 0 0 0 0 0 24762 10000 10000 10000 10000 10000 10000 10000 10000 10000 10000 10000 10000 10000 10000 10000 10000 10000 10000 10000 10000 10000 10000 10000 10000 10000 10000 10000 10000 10000 10000 10000 10000 10000 10000 10000 10000 10000 10000 10000 10000 10000 10000 10000 10000 10000 10000 8183 8183 8183 8183 8183 8183 8183 8183 17548 17548 17548 17548 16452 16452 16452 16452 16452 16452 16452 16452 16452 16452 16452 16452 16452 16452 16452 16452 4350 0 0 0 0 0 0 0 0 0 0 0 0 0 0 0 0 0 0 0 0 0 0 0 0 0 0 0 0 0 0 0 0 0 0 0 0 0 0 0 0 0 0 0 0 0 0 0 0 0 0 0 0 10000 10000 10000 10000 10000 10000 10000 10000 10000 10000 10000 10000 10000 10000 10000 10000 10000 10000 10000 10000 10000 10000 10000 10000 10000 10000 10000 10000 10000 10000 10000 10000 10000 10000 10000 10000 10000 10000 10000 10000 10000 10000 10000 10000 10000 10000 10000 8183 8183 8183 8183 8183 8183 8183 17548 17548 17548 17548 17548 16452 16452 16452 16452 16452 16452 16452 16452 16452 16452 16452 16452 16452 16452 16452 4350 4350 4350 0 0 0 0 0 0 0 0 0 0 0 0 0 0 0 0 0 0 0 0 0 0 0 0 0 0 0 0 0 0 0 0 0 0 0 0 0 0 0 0 0 0 0 0 0 0 0 0 0 0 0 10000 10000 10000 10000 10000 10000 10000 10000 10000 10000 10000 10000 10000 10000 10000 10000 10000 10000 10000 10000 10000 10000 10000 10000 10000 10000 10000 10000 10000 10000 10000 10000 10000 10000 10000 10000 10000 10000 10000 10000 10000 10000 10000 10000 10000 10000 10000 10000 8183 8183 8183 8183 8183 8183 17548 17548 17548 17548 17548 16452 16452 16452 16452 16452 16452 16452 16452 16452 16452 16452 16452 16452 16452 4350 4350 4350 4350 4350 0 0 0 0 0 0 0 0 0 0 0 0 0 0 0 0 0 0 0 0 0 0 0 0 0 0 0 0 0 0 0 0 0 0 0 0 0 0 0 0 0 0 0 0 0 0 0 0 0 0 10000 10000 10000 10000 10000 10000 10000 10000 10000 10000 10000 10000 10000 10000 10000 10000 10000 10000 10000 10000 10000 10000 10000 10000 10000 10000 10000 10000 10000 10000 10000 10000 10000 10000 10000 10000 10000 10000 10000 10000 10000 10000 10000 10000 10000 10000 10000 10000 10000 10000 10000 8183 4301 4301 4301 17548 17548 17548 17548 16452 16452 16452 16452 16452 16452 16452 16452 16452 16452 16452 16452 16452 4350 4350 4350 4350 4350 4350 0 0 0 0 0 0 0 0 0 0 0 0 0 0 0 0 0 0 0 0 0 0 0 0 0 0 0 0 0 0 0 0 0 0 0 0 0 0 0 0 0 0 0 0 0 0 0 0 0 0 10000 10000 10000 10000 10000 10000 10000 10000 10000 10000 10000 10000 10000 10000 10000 10000 10000 10000 10000 10000 10000 10000 10000 10000 10000 10000 10000 10000 10000 10000 10000 10000 10000 10000 10000 10000 10000 10000 10000 10000 10000 10000 10000 10000 10000 10000 10000 10000 10000 10000 10000 4301 4301 4301 4301 4301 13830 13830 13830 13830 16452 16452 16452 16452 16452 16452 16452 16452 16452 16452 18095 18095 4350 4350 4350 4350 4350 4350 0 0 0 0 0 0 0 0 0 0 0 0 0 0 0 0 0 0 0 0 0 0 0 0 0 0 0 0 0 0 0 0 0 0 0 0 0 0 0 0 0 0 0 0 0 0 0 0 0 0 10000 10000 10000 10000 10000 10000 10000 10000 10000 10000 10000 10000 10000 10000 10000 10000 10000 10000 10000 10000 10000 10000 10000 10000 10000 10000 10000 10000 10000 10000 10000 10000 10000 10000 10000 10000 10000 10000 10000 10000 10000 10000 10000 10000 10000 10000 10000 10000 10000 10000 10000 4301 4301 4301 4301 4301 13830 13830 13830 13830 13830 16452 16452 16452 16452 16452 16452 16452 16452 18095 18095 18095 18095 4350 4350 4350 4350 4350 0 0 0 0 0 0 0 0 0 0 0 0 0 0 0 0 0 0 0 0 0 0 0 0 0 0 0 0 0 0 0 0 0 0 0 0 0 0 0 0 0 0 0 0 0 0 0 0 0 0 10000 10000 10000 10000 10000 10000 10000 10000 10000 10000 10000 10000 10000 10000 10000 10000 10000 10000 10000 10000 10000 10000 10000 10000 10000 10000 10000 10000 10000 10000 10000 10000 10000 10000 10000 10000 10000 10000 10000 10000 10000 10000 10000 10000 10000 10000 10000 10000 10000 10000 10000 10000 4301 4301 4301 13830 13830 13830 13830 13830 13830 13830 16452 16452 16452 16452 16452 16452 18095 18095 18095 18095 18095 18095 4350 4350 4350 4350 0 0 0 0 0 0 0 0 0 0 0 0 0 0 0 0 0 0 0 0 0 0 0 0 0 0 0 0 0 0 0 0 0 0 0 0 0 0 0 0 0 0 0 0 0 0 0 0 0 0 10000 10000 10000 10000 10000 10000 10000 10000 10000 10000 10000 10000 10000 10000 10000 10000 10000 10000 10000 10000 10000 10000 10000 10000 10000 10000 10000 10000 10000 10000 10000 10000 10000 10000 10000 10000 10000 10000 10000 10000 10000 10000 10000 10000 10000 10000 10000 10000 10000 10000 10000 10000 4301 4301 13830 13830 13830 13830 13830 13830 13830 13830 13830 16452 790 790 790 18095 18095 18095 18095 18095 18095 18095 19656 19656 19656 19656 0 0 0 0 0 0 0 0 0 0 0 0 0 0 0 0 0 0 0 0 0 0 0 0 0 0 0 0 0 0 0 0 0 0 0 0 0 0 0 0 0 0 0 0 0 0 0 0 0 0 10000 10000 10000 10000 10000 10000 10000 10000 10000 10000 10000 10000 10000 10000 10000 10000 10000 10000 10000 10000 10000 10000 10000 10000 10000 10000 10000 10000 10000 10000 10000 10000 10000 10000 10000 10000 10000 10000 10000 10000 10000 10000 10000 10000 10000 10000 10000 10000 10000 10000 10000 10000 28273 28273 13830 13830 13830 13830 13830 13830 13830 13830 13830 790 790 790 790 790 18095 18095 18095 18095 18095 19656 19656 19656 19656 19656 19656 0 0 0 0 0 0 0 0 0 0 0 0 0 0 0 0 0 0 0 0 0 0 0 0 0 0 0 0 0 0 0 0 0 0 0 0 0 0 0 0 0 0 0 0 0 0 0 0 0 10000 10000 10000 10000 10000 10000 10000 10000 10000 10000 10000 10000 10000 10000 10000 10000 10000 10000 10000 10000 10000 10000 10000 10000 10000 10000 10000 10000 10000 10000 10000 10000 10000 10000 10000 10000 10000 10000 10000 10000 10000 10000 10000 10000 10000 10000 10000 10000 10000 10000 10000 10000 28273 28273 28273 13830 13830 13830 13830 13830 13830 13830 790 790 790 790 790 790 18095 18095 18095 18095 19656 19656 19656 19656 19656 19656 19656 0 0 0 0 0 0 0 0 0 0 0 0 0 0 0 0 0 0 0 0 0 0 0 0 0 0 0 0 0 0 0 0 0 0 0 0 0 0 0 0 0 0 0 0 0 0 0 0 0 10000 10000 10000 10000 10000 10000 10000 10000 10000 10000 10000 10000 10000 10000 10000 10000 10000 10000 10000 10000 10000 10000 10000 10000 10000 10000 10000 10000 10000 10000 10000 10000 10000 10000 10000 10000 10000 10000 10000 10000 10000 10000 10000 10000 10000 10000 10000 10000 10000 10000 10000 10000 28273 28273 28273 28273 13830 13830 13830 13830 13830 790 790 790 790 790 790 790 8362 8362 8362 8362 19656 19656 19656 19656 19656 19656 19656 0 0 0 0 0 0 0 0 0 0 0 0 0 0 0 0 0 0 0 0 0 0 0 0 0 0 0 0 0 0 0 0 0 0 0 0 0 0 0 0 0 0 0 0 0 0 0 0 0 10000 10000 10000 10000 10000 10000 10000 10000 10000 10000 10000 10000 10000 10000 10000 10000 10000 10000 10000 10000 10000 10000 10000 10000 10000 10000 10000 10000 10000 10000 10000 10000 10000 10000 10000 1000